      -----------------------------------------------------------      
     |                   =====================                   |     
     |                           x T B                           |     
     |                   =====================                   |     
     |                         S. Grimme                         |     
     |          Mulliken Center for Theoretical Chemistry        |     
     |                    University of Bonn                     |     
      -----------------------------------------------------------      

   * xtb version 6.7.1 (edcfbbe) compiled by 'conda@c0858423619e' on 2025-09-04

   xtb is free software: you can redistribute it and/or modify it under
   the terms of the GNU Lesser General Public License as published by
   the Free Software Foundation, either version 3 of the License, or
   (at your option) any later version.
   
   xtb is distributed in the hope that it will be useful,
   but WITHOUT ANY WARRANTY; without even the implied warranty of
   MERCHANTABILITY or FITNESS FOR A PARTICULAR PURPOSE.  See the
   GNU Lesser General Public License for more details.
   
   Cite this work as:
   * C. Bannwarth, E. Caldeweyher, S. Ehlert, A. Hansen, P. Pracht,
     J. Seibert, S. Spicher, S. Grimme, WIREs Comput. Mol. Sci., 2020, 11,
     e01493. DOI: 10.1002/wcms.1493
   
   for GFN2-xTB:
   * C. Bannwarth, S. Ehlert and S. Grimme., J. Chem. Theory Comput., 2019,
     15, 1652-1671. DOI: 10.1021/acs.jctc.8b01176
   for GFN1-xTB:
   * S. Grimme, C. Bannwarth, P. Shushkov, J. Chem. Theory Comput., 2017,
     13, 1989-2009. DOI: 10.1021/acs.jctc.7b00118
   for GFN0-xTB:
   * P. Pracht, E. Caldeweyher, S. Ehlert, S. Grimme, ChemRxiv, 2019, preprint.
     DOI: 10.26434/chemrxiv.8326202.v1
   for GFN-FF:
   * S. Spicher and S. Grimme, Angew. Chem. Int. Ed., 2020, 59, 15665-15673.
     DOI: 10.1002/anie.202004239
   
   for ALPB and GBSA implicit solvation:
   * S. Ehlert, M. Stahn, S. Spicher, S. Grimme, J. Chem. Theory Comput.,
     2021, 17, 4250-4261. DOI: 10.1021/acs.jctc.1c00471
   
   for ddCOSMO and CPCM-X implicit solvation:
   * M. Stahn, S. Ehlert, S. Grimme, J. Phys. Chem. A,
     2023, XX, XXXX-XXXX. DOI: 10.1021/acs.jpca.3c04382
   
   for DFT-D4:
   * E. Caldeweyher, C. Bannwarth and S. Grimme, J. Chem. Phys., 2017,
     147, 034112. DOI: 10.1063/1.4993215
   * E. Caldeweyher, S. Ehlert, A. Hansen, H. Neugebauer, S. Spicher,
     C. Bannwarth and S. Grimme, J. Chem. Phys., 2019, 150, 154122.
     DOI: 10.1063/1.5090222
   * E. Caldeweyher, J.-M. Mewes, S. Ehlert and S. Grimme, Phys. Chem. Chem. Phys.
     2020, 22, 8499-8512. DOI: 10.1039/D0CP00502A
   
   for sTDA-xTB:
   * S. Grimme and C. Bannwarth, J. Chem. Phys., 2016, 145, 054103.
     DOI: 10.1063/1.4959605
   
   in the mass-spec context:
   * V. Asgeirsson, C. Bauer and S. Grimme, Chem. Sci., 2017, 8, 4879.
     DOI: 10.1039/c7sc00601b
   * J. Koopman and S. Grimme, ACS Omega 2019, 4, 12, 15120-15133.
     DOI: 10.1021/acsomega.9b02011
   
   for metadynamics refer to:
   * S. Grimme, J. Chem. Theory Comput., 2019, 155, 2847-2862
     DOI: 10.1021/acs.jctc.9b00143
   
   for SPH calculations refer to:
   * S. Spicher and S. Grimme, J. Chem. Theory Comput., 2021, 17, 1701-1714
     DOI: 10.1021/acs.jctc.0c01306
   
   for ONIOM refer to:
   * C. Plett, A. Katbashev, S. Ehlert, S. Grimme, M. Bursch,
     Phys. Chem. Chem. Phys., 2023, 25, 17860-17868. DOI: 10.1039/D3CP02178E
   
   for DIPRO refer to:
   * J. Kohn, N. Gildemeister, S. Grimme, D. Fazzi, A. Hansen,
     J. Chem. Phys., 2023, just accepted.
   
   for PTB refer to:
   * S. Grimme, M. Mueller, A. Hansen, J. Chem. Phys., 2023, 158, 124111.
     DOI: 10.1063/5.0137838
   
   with help from (in alphabetical order)
   P. Atkinson, C. Bannwarth, F. Bohle, G. Brandenburg, E. Caldeweyher
   M. Checinski, S. Dohm, S. Ehlert, S. Ehrlich, I. Gerasimov, C. Hölzer
   A. Katbashev, J. Kohn, J. Koopman, C. Lavigne, S. Lehtola, F. März, M. Müller,
   F. Musil, H. Neugebauer, J. Pisarek, C. Plett, P. Pracht, F. Pultar,
   J. Seibert, P. Shushkov, S. Spicher, M. Stahn, M. Steiner, T. Strunk,
   J. Stückrath, T. Rose, and J. Unsleber
   
 * started run on 2026/03/18 at 16:16:23.547     
   ID    Z sym.   atoms
    1    6 C      1, 3, 4, 6, 8-15
    2    7 N      2, 7
    3    8 O      5
    4    9 F      16
    5    1 H      17-33

           -------------------------------------------------
          |                Calculation Setup                |
           -------------------------------------------------

          program call               : xtb /home/tuu61186/STEPs/0_openBable_SMILES/out/xyz/STEPs_0001.xyz --gfn 2 --opt
          hostname                   : c01
          coordinate file            : /home/tuu61186/STEPs/0_openBable_SMILES/out/xyz/STEPs_0001.xyz
          omp threads                :                     1


           -------------------------------------------------
          |                 G F N 2 - x T B                 |
           -------------------------------------------------

        Reference                      10.1021/acs.jctc.8b01176
      * Hamiltonian:
        H0-scaling (s, p, d)           1.850000    2.230000    2.230000
        zeta-weighting                 0.500000
      * Dispersion:
        s8                             2.700000
        a1                             0.520000
        a2                             5.000000
        s9                             5.000000
      * Repulsion:
        kExp                           1.500000    1.000000
        rExp                           1.000000
      * Coulomb:
        alpha                          2.000000
        third order                    shell-resolved
        anisotropic                    true
        a3                             3.000000
        a5                             4.000000
        cn-shift                       1.200000
        cn-exp                         4.000000
        max-rad                        5.000000


          ...................................................
          :                      SETUP                      :
          :.................................................:
          :  # basis functions                  81          :
          :  # atomic orbitals                  81          :
          :  # shells                           49          :
          :  # electrons                        88          :
          :  max. iterations                   250          :
          :  Hamiltonian                  GFN2-xTB          :
          :  restarted?                      false          :
          :  GBSA solvation                  false          :
          :  PC potential                    false          :
          :  electronic temp.          300.0000000     K    :
          :  accuracy                    1.0000000          :
          :  -> integral cutoff          0.2500000E+02      :
          :  -> integral neglect         0.1000000E-07      :
          :  -> SCF convergence          0.1000000E-05 Eh   :
          :  -> wf. convergence          0.1000000E-03 e    :
          :  Broyden damping             0.4000000          :
          :  net charge                          0          :
          :  unpaired electrons                  0          :
          ...................................................

 iter      E             dE          RMSdq      gap      omega  full diag
   1    -49.5299475 -0.495299E+02  0.374E+00    3.35       0.0  T
   2    -49.6089298 -0.789823E-01  0.220E+00    3.03       1.0  T
   3    -49.6110586 -0.212876E-02  0.109E+00    2.90       1.0  T
   4    -49.6155678 -0.450920E-02  0.312E-01    2.79       1.0  T
   5    -49.6173747 -0.180687E-02  0.927E-02    2.76       1.0  T
   6    -49.6174696 -0.949377E-04  0.408E-02    2.77       1.0  T
   7    -49.6174737 -0.411391E-05  0.193E-02    2.78       1.0  T
   8    -49.6174781 -0.441016E-05  0.653E-03    2.78       2.7  T
   9    -49.6174782 -0.131116E-06  0.251E-03    2.78       6.9  T
  10    -49.6174784 -0.151885E-06  0.103E-03    2.78      16.8  T
  11    -49.6174784 -0.741637E-08  0.404E-04    2.78      43.1  T
  12    -49.6174784 -0.966274E-09  0.126E-04    2.78     138.2  T

   *** convergence criteria satisfied after 12 iterations ***

         #    Occupation            Energy/Eh            Energy/eV
      -------------------------------------------------------------
         1        2.0000           -0.8103685             -22.0512
       ...           ...                  ...                  ...
        38        2.0000           -0.4389692             -11.9450
        39        2.0000           -0.4249512             -11.5635
        40        2.0000           -0.4086707             -11.1205
        41        2.0000           -0.4011374             -10.9155
        42        2.0000           -0.3987314             -10.8500
        43        2.0000           -0.3798153             -10.3353
        44        2.0000           -0.3393721              -9.2348 (HOMO)
        45                         -0.2373471              -6.4585 (LUMO)
        46                         -0.2310280              -6.2866
        47                         -0.2078242              -5.6552
        48                         -0.1103371              -3.0024
        49                         -0.0288306              -0.7845
       ...                                ...                  ...
        81                          0.6236750              16.9711
      -------------------------------------------------------------
                  HL-Gap            0.1020250 Eh            2.7762 eV
             Fermi-level           -0.2883596 Eh           -7.8467 eV

 SCC (total)                   0 d,  0 h,  0 min,  0.085 sec
 SCC setup                      ...        0 min,  0.000 sec (  0.513%)
 Dispersion                     ...        0 min,  0.000 sec (  0.353%)
 classical contributions        ...        0 min,  0.014 sec ( 16.250%)
 integral evaluation            ...        0 min,  0.004 sec (  4.811%)
 iterations                     ...        0 min,  0.051 sec ( 59.273%)
 molecular gradient             ...        0 min,  0.016 sec ( 18.190%)
 printout                       ...        0 min,  0.001 sec (  0.593%)

         :::::::::::::::::::::::::::::::::::::::::::::::::::::
         ::                     SUMMARY                     ::
         :::::::::::::::::::::::::::::::::::::::::::::::::::::
         :: total energy             -49.006442220049 Eh    ::
         :: gradient norm              0.055613557002 Eh/a0 ::
         :: HOMO-LUMO gap              2.776242363689 eV    ::
         ::.................................................::
         :: SCC energy               -49.616954811906 Eh    ::
         :: -> isotropic ES            0.055163850825 Eh    ::
         :: -> anisotropic ES          0.005656276759 Eh    ::
         :: -> anisotropic XC          0.021547882338 Eh    ::
         :: -> dispersion             -0.030325807798 Eh    ::
         :: repulsion energy           0.610512591857 Eh    ::
         :: add. restraining           0.000000000000 Eh    ::
         :: total charge               0.000000000000 e     ::
         :::::::::::::::::::::::::::::::::::::::::::::::::::::

      ----------------------------------------------------------- 
     |                   =====================                   |
     |                        A N C O P T                        |
     |                   =====================                   |
     |               Approximate Normal Coordinate               |
     |                Rational Function Optimizer                |
      ----------------------------------------------------------- 
      ----------------------------------------------------------- 
     |                   =====================                   |
     |                        A N C O P T                        |
     |                   =====================                   |
     |               Approximate Normal Coordinate               |
     |                Rational Function Optimizer                |
      ----------------------------------------------------------- 

          ...................................................
          :                      SETUP                      :
          :.................................................:
          :   optimization level            normal          :
          :   max. optcycles                   200          :
          :   ANC micro-cycles                  20          :
          :   degrees of freedom                93          :
          :.................................................:
          :   RF solver                   davidson          :
          :   write xtbopt.log                true          :
          :   linear?                        false          :
          :   energy convergence         0.5000000E-05 Eh   :
          :   grad. convergence          0.1000000E-02 Eh/α :
          :   maxmium RF displ.          1.0000000          :
          :   Hlow (freq-cutoff)         0.1000000E-01      :
          :   Hmax (freq-cutoff)         5.0000000          :
          :   S6 in model hess.         20.0000000          :
          ...................................................

generating ANC from exact Hessian ...
Using Lindh-Hessian (1995)
 Shifting diagonal of input Hessian by    9.6397244228311699E-003
 Lowest  eigenvalues of input Hessian
    0.000000    0.000000    0.000000    0.000000    0.000000    0.000000
    0.010000    0.010348    0.010529    0.011779    0.012208    0.013146
    0.014987    0.016070    0.018259    0.018938    0.019541    0.020820
 Highest eigenvalues
    1.699222    1.699403    1.843846    1.966393    2.044067    2.150861


........................................................................
.............................. CYCLE    1 ..............................
........................................................................

 iter      E             dE          RMSdq      gap      omega  full diag
   1    -49.6174784 -0.496175E+02  0.428E-05    2.78       0.0  T
   2    -49.6174784 -0.122427E-10  0.249E-05    2.78     699.4  T
   3    -49.6174784 -0.359535E-11  0.144E-05    2.78    1208.6  T
     SCC iter.                  ...        0 min,  0.004 sec
     gradient                   ...        0 min,  0.010 sec
 * total energy  :   -49.0064422 Eh     change       -0.1318554E-09 Eh
   gradient norm :     0.0556132 Eh/α   predicted     0.0000000E+00 (-100.00%)
   displ. norm   :     0.2897565 α      lambda       -0.8816112E-02
   maximum displ.:     0.1255681 α      in ANC's #27, #25, #8, ...

........................................................................
.............................. CYCLE    2 ..............................
........................................................................

 iter      E             dE          RMSdq      gap      omega  full diag
   1    -49.6498974 -0.496499E+02  0.213E-01    2.77       0.0  T
   2    -49.6499753 -0.778946E-04  0.128E-01    2.77       1.0  T
   3    -49.6499627  0.126459E-04  0.430E-02    2.77       1.0  T
   4    -49.6499895 -0.267877E-04  0.754E-03    2.77       2.3  T
   5    -49.6499900 -0.502043E-06  0.394E-03    2.77       4.4  T
   6    -49.6499901 -0.982057E-07  0.176E-03    2.77       9.9  T
   7    -49.6499901 -0.256291E-07  0.666E-04    2.77      26.2  T
   8    -49.6499901 -0.220597E-08  0.245E-04    2.77      71.1  T
     SCC iter.                  ...        0 min,  0.008 sec
     gradient                   ...        0 min,  0.010 sec
 * total energy  :   -49.0120926 Eh     change       -0.5650378E-02 Eh
   gradient norm :     0.0200085 Eh/α   predicted    -0.4778278E-02 ( -15.43%)
   displ. norm   :     0.2086590 α      lambda       -0.1525008E-02
   maximum displ.:     0.1256966 α      in ANC's #8, #21, #25, ...

........................................................................
.............................. CYCLE    3 ..............................
........................................................................

 iter      E             dE          RMSdq      gap      omega  full diag
   1    -49.6619269 -0.496619E+02  0.103E-01    2.73       0.0  T
   2    -49.6619765 -0.496366E-04  0.626E-02    2.73       1.0  T
   3    -49.6619783 -0.172883E-05  0.281E-02    2.73       1.0  T
   4    -49.6619808 -0.249246E-05  0.605E-03    2.73       2.9  T
   5    -49.6619816 -0.814143E-06  0.168E-03    2.73      10.3  T
   6    -49.6619816 -0.138665E-07  0.753E-04    2.73      23.1  T
   7    -49.6619816 -0.373437E-08  0.285E-04    2.73      61.1  T
     SCC iter.                  ...        0 min,  0.006 sec
     gradient                   ...        0 min,  0.010 sec
 * total energy  :   -49.0129790 Eh     change       -0.8863539E-03 Eh
   gradient norm :     0.0072174 Eh/α   predicted    -0.7963198E-03 ( -10.16%)
   displ. norm   :     0.1249703 α      lambda       -0.2225008E-03
   maximum displ.:     0.0774996 α      in ANC's #8, #5, #2, ...

........................................................................
.............................. CYCLE    4 ..............................
........................................................................

 iter      E             dE          RMSdq      gap      omega  full diag
   1    -49.6629032 -0.496629E+02  0.430E-02    2.72       0.0  T
   2    -49.6629105 -0.727142E-05  0.256E-02    2.71       1.0  T
   3    -49.6629104  0.192164E-07  0.112E-02    2.72       1.6  T
   4    -49.6629111 -0.691998E-06  0.279E-03    2.71       6.2  T
   5    -49.6629113 -0.201790E-06  0.600E-04    2.71      29.0  T
   6    -49.6629113 -0.165447E-08  0.255E-04    2.71      68.2  T
     SCC iter.                  ...        0 min,  0.005 sec
     gradient                   ...        0 min,  0.010 sec
 * total energy  :   -49.0131421 Eh     change       -0.1631241E-03 Eh
   gradient norm :     0.0026902 Eh/α   predicted    -0.1129886E-03 ( -30.73%)
   displ. norm   :     0.1729272 α      lambda       -0.1746361E-03
   maximum displ.:     0.0874446 α      in ANC's #5, #8, #2, ...

........................................................................
.............................. CYCLE    5 ..............................
........................................................................

 iter      E             dE          RMSdq      gap      omega  full diag
   1    -49.6622550 -0.496623E+02  0.529E-02    2.70       0.0  T
   2    -49.6622591 -0.417186E-05  0.313E-02    2.70       1.0  T
   3    -49.6622577  0.148570E-05  0.108E-02    2.70       1.6  T
   4    -49.6622599 -0.219522E-05  0.229E-03    2.70       7.6  T
   5    -49.6622600 -0.125019E-06  0.731E-04    2.70      23.8  T
   6    -49.6622600 -0.201376E-08  0.307E-04    2.70      56.7  T
     SCC iter.                  ...        0 min,  0.005 sec
     gradient                   ...        0 min,  0.010 sec
 * total energy  :   -49.0132572 Eh     change       -0.1151113E-03 Eh
   gradient norm :     0.0032518 Eh/α   predicted    -0.8992986E-04 ( -21.88%)
   displ. norm   :     0.1353354 α      lambda       -0.7782445E-04
   maximum displ.:     0.0810499 α      in ANC's #5, #2, #4, ...

........................................................................
.............................. CYCLE    6 ..............................
........................................................................

 iter      E             dE          RMSdq      gap      omega  full diag
   1    -49.6616397 -0.496616E+02  0.361E-02    2.70       0.0  T
   2    -49.6616402 -0.502452E-06  0.212E-02    2.70       1.0  T
   3    -49.6616395  0.778058E-06  0.520E-03    2.70       3.3  T
   4    -49.6616405 -0.993978E-06  0.888E-04    2.70      19.6  T
   5    -49.6616405 -0.495477E-08  0.430E-04    2.70      40.5  T
     SCC iter.                  ...        0 min,  0.005 sec
     gradient                   ...        0 min,  0.010 sec
 * total energy  :   -49.0133189 Eh     change       -0.6170930E-04 Eh
   gradient norm :     0.0036652 Eh/α   predicted    -0.3963009E-04 ( -35.78%)
   displ. norm   :     0.1791825 α      lambda       -0.9904990E-04
   maximum displ.:     0.1052289 α      in ANC's #5, #2, #4, ...

........................................................................
.............................. CYCLE    7 ..............................
........................................................................

 iter      E             dE          RMSdq      gap      omega  full diag
   1    -49.6611722 -0.496612E+02  0.443E-02    2.71       0.0  T
   2    -49.6611729 -0.641806E-06  0.259E-02    2.71       1.0  T
   3    -49.6611722  0.655211E-06  0.473E-03    2.71       3.7  T
   4    -49.6611731 -0.894344E-06  0.114E-03    2.71      15.2  T
   5    -49.6611731 -0.143487E-07  0.577E-04    2.71      30.2  T
   6    -49.6611731 -0.165481E-08  0.177E-04    2.71      98.6  T
     SCC iter.                  ...        0 min,  0.005 sec
     gradient                   ...        0 min,  0.010 sec
 * total energy  :   -49.0134021 Eh     change       -0.8318571E-04 Eh
   gradient norm :     0.0028448 Eh/α   predicted    -0.5112138E-04 ( -38.55%)
   displ. norm   :     0.3159832 α      lambda       -0.1588183E-03
   maximum displ.:     0.1794734 α      in ANC's #5, #2, #4, ...

........................................................................
.............................. CYCLE    8 ..............................
........................................................................

 iter      E             dE          RMSdq      gap      omega  full diag
   1    -49.6605733 -0.496606E+02  0.747E-02    2.72       0.0  T
   2    -49.6605750 -0.166762E-05  0.434E-02    2.72       1.0  T
   3    -49.6605735  0.151800E-05  0.753E-03    2.72       2.3  T
   4    -49.6605756 -0.216630E-05  0.192E-03    2.72       9.1  T
   5    -49.6605757 -0.314187E-07  0.947E-04    2.72      18.4  T
   6    -49.6605757 -0.498524E-08  0.291E-04    2.72      59.8  T
     SCC iter.                  ...        0 min,  0.005 sec
     gradient                   ...        0 min,  0.010 sec
 * total energy  :   -49.0135281 Eh     change       -0.1259925E-03 Eh
   gradient norm :     0.0034079 Eh/α   predicted    -0.8734036E-04 ( -30.68%)
   displ. norm   :     0.3977142 α      lambda       -0.1728385E-03
   maximum displ.:     0.2149201 α      in ANC's #5, #2, #12, ...

........................................................................
.............................. CYCLE    9 ..............................
........................................................................

 iter      E             dE          RMSdq      gap      omega  full diag
   1    -49.6598947 -0.496599E+02  0.918E-02    2.73       0.0  T
   2    -49.6598968 -0.214976E-05  0.531E-02    2.73       1.0  T
   3    -49.6598947  0.213196E-05  0.898E-03    2.73       1.9  T
   4    -49.6598978 -0.311737E-05  0.229E-03    2.73       7.6  T
   5    -49.6598978 -0.179304E-07  0.922E-04    2.73      18.9  T
   6    -49.6598978 -0.706267E-08  0.351E-04    2.73      49.6  T
     SCC iter.                  ...        0 min,  0.005 sec
     gradient                   ...        0 min,  0.010 sec
 * total energy  :   -49.0136594 Eh     change       -0.1313618E-03 Eh
   gradient norm :     0.0054100 Eh/α   predicted    -0.1000903E-03 ( -23.81%)
   displ. norm   :     0.3791423 α      lambda       -0.1776924E-03
   maximum displ.:     0.2057906 α      in ANC's #2, #5, #12, ...

........................................................................
.............................. CYCLE   10 ..............................
........................................................................

 iter      E             dE          RMSdq      gap      omega  full diag
   1    -49.6603355 -0.496603E+02  0.855E-02    2.73       0.0  T
   2    -49.6603374 -0.192819E-05  0.493E-02    2.74       1.0  T
   3    -49.6603359  0.152280E-05  0.806E-03    2.74       2.2  T
   4    -49.6603383 -0.235840E-05  0.221E-03    2.74       7.9  T
   5    -49.6603383 -0.174285E-07  0.914E-04    2.74      19.0  T
   6    -49.6603383 -0.882159E-08  0.320E-04    2.74      54.3  T
     SCC iter.                  ...        0 min,  0.005 sec
     gradient                   ...        0 min,  0.010 sec
 * total energy  :   -49.0137983 Eh     change       -0.1388749E-03 Eh
   gradient norm :     0.0059111 Eh/α   predicted    -0.1016218E-03 ( -26.82%)
   displ. norm   :     0.3641658 α      lambda       -0.2162823E-03
   maximum displ.:     0.1951886 α      in ANC's #2, #12, #5, ...

........................................................................
.............................. CYCLE   11 ..............................
........................................................................

 iter      E             dE          RMSdq      gap      omega  full diag
   1    -49.6622078 -0.496622E+02  0.831E-02    2.73       0.0  T
   2    -49.6622106 -0.278834E-05  0.481E-02    2.73       1.0  T
   3    -49.6622093  0.128610E-05  0.823E-03    2.74       2.1  T
   4    -49.6622113 -0.205533E-05  0.246E-03    2.74       7.1  T
   5    -49.6622114 -0.791551E-07  0.122E-03    2.74      14.3  T
   6    -49.6622114 -0.101876E-07  0.346E-04    2.74      50.3  T
   7    -49.6622114 -0.878103E-09  0.172E-04    2.74     101.4  T
     SCC iter.                  ...        0 min,  0.006 sec
     gradient                   ...        0 min,  0.010 sec
 * total energy  :   -49.0139607 Eh     change       -0.1624276E-03 Eh
   gradient norm :     0.0046062 Eh/α   predicted    -0.1224906E-03 ( -24.59%)
   displ. norm   :     0.4507247 α      lambda       -0.1891601E-03
   maximum displ.:     0.2465960 α      in ANC's #2, #12, #5, ...

........................................................................
.............................. CYCLE   12 ..............................
........................................................................

 iter      E             dE          RMSdq      gap      omega  full diag
   1    -49.6607563 -0.496608E+02  0.101E-01    2.73       0.0  T
   2    -49.6607601 -0.380350E-05  0.589E-02    2.73       1.0  T
   3    -49.6607568  0.334762E-05  0.114E-02    2.73       1.5  T
   4    -49.6607615 -0.472621E-05  0.288E-03    2.73       6.0  T
   5    -49.6607616 -0.698129E-07  0.135E-03    2.73      12.9  T
   6    -49.6607616 -0.102096E-07  0.412E-04    2.73      42.2  T
   7    -49.6607616 -0.739689E-09  0.201E-04    2.73      86.5  T
     SCC iter.                  ...        0 min,  0.006 sec
     gradient                   ...        0 min,  0.010 sec
 * total energy  :   -49.0141048 Eh     change       -0.1440525E-03 Eh
   gradient norm :     0.0060115 Eh/α   predicted    -0.1137966E-03 ( -21.00%)
   displ. norm   :     0.3841808 α      lambda       -0.3001181E-03
   maximum displ.:     0.2471753 α      in ANC's #12, #2, #7, ...

........................................................................
.............................. CYCLE   13 ..............................
........................................................................

 iter      E             dE          RMSdq      gap      omega  full diag
   1    -49.6642935 -0.496643E+02  0.832E-02    2.70       0.0  T
   2    -49.6642976 -0.410176E-05  0.488E-02    2.71       1.0  T
   3    -49.6642960  0.162994E-05  0.986E-03    2.72       1.8  T
   4    -49.6642985 -0.250288E-05  0.308E-03    2.71       5.7  T
   5    -49.6642986 -0.116328E-06  0.126E-03    2.71      13.8  T
   6    -49.6642986 -0.109002E-07  0.490E-04    2.71      35.5  T
   7    -49.6642986 -0.184414E-08  0.199E-04    2.71      87.7  T
     SCC iter.                  ...        0 min,  0.006 sec
     gradient                   ...        0 min,  0.010 sec
 * total energy  :   -49.0142499 Eh     change       -0.1450986E-03 Eh
   gradient norm :     0.0092959 Eh/α   predicted    -0.1722109E-03 (  18.69%)
   displ. norm   :     0.3781110 α      lambda       -0.2475146E-03
   maximum displ.:     0.2180708 α      in ANC's #2, #12, #7, ...

........................................................................
.............................. CYCLE   14 ..............................
........................................................................

 iter      E             dE          RMSdq      gap      omega  full diag
   1    -49.6604475 -0.496604E+02  0.863E-02    2.71       0.0  T
   2    -49.6604515 -0.397542E-05  0.503E-02    2.71       1.0  T
   3    -49.6604488  0.275653E-05  0.110E-02    2.71       1.6  T
   4    -49.6604527 -0.389796E-05  0.254E-03    2.71       6.8  T
   5    -49.6604527 -0.720249E-07  0.134E-03    2.71      13.0  T
   6    -49.6604527 -0.108329E-07  0.455E-04    2.71      38.3  T
   7    -49.6604527 -0.167965E-08  0.193E-04    2.71      90.1  T
     SCC iter.                  ...        0 min,  0.006 sec
     gradient                   ...        0 min,  0.010 sec
 * total energy  :   -49.0144225 Eh     change       -0.1725734E-03 Eh
   gradient norm :     0.0097385 Eh/α   predicted    -0.1414532E-03 ( -18.03%)
   displ. norm   :     0.2358056 α      lambda       -0.5039524E-03
   maximum displ.:     0.1129752 α      in ANC's #2, #12, #8, ...

........................................................................
.............................. CYCLE   15 ..............................
........................................................................

 iter      E             dE          RMSdq      gap      omega  full diag
   1    -49.6630609 -0.496631E+02  0.699E-02    2.71       0.0  T
   2    -49.6630685 -0.755848E-05  0.401E-02    2.70       1.0  T
   3    -49.6630682  0.303006E-06  0.996E-03    2.70       1.7  T
   4    -49.6630690 -0.894283E-06  0.313E-03    2.70       5.6  T
   5    -49.6630693 -0.204936E-06  0.142E-03    2.70      12.3  T
   6    -49.6630693 -0.956435E-08  0.508E-04    2.70      34.3  T
   7    -49.6630693 -0.304047E-08  0.173E-04    2.70     100.5  T
     SCC iter.                  ...        0 min,  0.006 sec
     gradient                   ...        0 min,  0.010 sec
 * total energy  :   -49.0145960 Eh     change       -0.1735747E-03 Eh
   gradient norm :     0.0118754 Eh/α   predicted    -0.2659872E-03 (  53.24%)
   displ. norm   :     0.4239696 α      lambda       -0.4818328E-03
   maximum displ.:     0.2762367 α      in ANC's #12, #2, #11, ...

........................................................................
.............................. CYCLE   16 ..............................
........................................................................

 iter      E             dE          RMSdq      gap      omega  full diag
   1    -49.6591407 -0.496591E+02  0.885E-02    2.69       0.0  T
   2    -49.6591487 -0.803030E-05  0.515E-02    2.70       1.0  T
   3    -49.6591483  0.390703E-06  0.110E-02    2.70       1.6  T
   4    -49.6591498 -0.149524E-05  0.306E-03    2.70       5.7  T
   5    -49.6591499 -0.741644E-07  0.154E-03    2.70      11.3  T
   6    -49.6591499 -0.280660E-07  0.557E-04    2.70      31.3  T
   7    -49.6591499 -0.324198E-08  0.210E-04    2.70      82.8  T
     SCC iter.                  ...        0 min,  0.006 sec
     gradient                   ...        0 min,  0.010 sec
 * total energy  :   -49.0149010 Eh     change       -0.3049802E-03 Eh
   gradient norm :     0.0084236 Eh/α   predicted    -0.2842296E-03 (  -6.80%)
   displ. norm   :     0.2081989 α      lambda       -0.2678619E-03
   maximum displ.:     0.1307426 α      in ANC's #5, #4, #11, ...

........................................................................
.............................. CYCLE   17 ..............................
........................................................................

 iter      E             dE          RMSdq      gap      omega  full diag
   1    -49.6626654 -0.496627E+02  0.468E-02    2.69       0.0  T
   2    -49.6626685 -0.310154E-05  0.277E-02    2.70       1.0  T
   3    -49.6626676  0.868318E-06  0.872E-03    2.70       2.0  T
   4    -49.6626690 -0.139725E-05  0.200E-03    2.70       8.7  T
   5    -49.6626691 -0.530237E-07  0.945E-04    2.70      18.4  T
   6    -49.6626691 -0.617718E-08  0.386E-04    2.70      45.1  T
     SCC iter.                  ...        0 min,  0.005 sec
     gradient                   ...        0 min,  0.010 sec
 * total energy  :   -49.0150264 Eh     change       -0.1253923E-03 Eh
   gradient norm :     0.0093672 Eh/α   predicted    -0.1397406E-03 (  11.44%)
   displ. norm   :     0.1347654 α      lambda       -0.2220015E-03
   maximum displ.:     0.0681420 α      in ANC's #5, #1, #2, ...

........................................................................
.............................. CYCLE   18 ..............................
........................................................................

 iter      E             dE          RMSdq      gap      omega  full diag
   1    -49.6652308 -0.496652E+02  0.356E-02    2.70       0.0  T
   2    -49.6652384 -0.761340E-05  0.203E-02    2.70       1.0  T
   3    -49.6652388 -0.352955E-06  0.974E-03    2.70       1.8  T
   4    -49.6652390 -0.225520E-06  0.186E-03    2.70       9.4  T
   5    -49.6652391 -0.750816E-07  0.715E-04    2.70      24.4  T
   6    -49.6652391 -0.275448E-08  0.300E-04    2.70      58.1  T
     SCC iter.                  ...        0 min,  0.006 sec
     gradient                   ...        0 min,  0.010 sec
 * total energy  :   -49.0151671 Eh     change       -0.1406873E-03 Eh
   gradient norm :     0.0070695 Eh/α   predicted    -0.1130168E-03 ( -19.67%)
   displ. norm   :     0.4097432 α      lambda       -0.2711639E-03
   maximum displ.:     0.2330536 α      in ANC's #12, #2, #1, ...

........................................................................
.............................. CYCLE   19 ..............................
........................................................................

 iter      E             dE          RMSdq      gap      omega  full diag
   1    -49.6614634 -0.496615E+02  0.924E-02    2.71       0.0  T
   2    -49.6614665 -0.303170E-05  0.543E-02    2.70       1.0  T
   3    -49.6614657  0.775359E-06  0.780E-03    2.70       2.2  T
   4    -49.6614672 -0.154822E-05  0.234E-03    2.70       7.4  T
   5    -49.6614673 -0.282872E-07  0.134E-03    2.70      13.0  T
   6    -49.6614673 -0.168519E-07  0.420E-04    2.70      41.4  T
   7    -49.6614673 -0.120546E-08  0.178E-04    2.70      97.7  T
     SCC iter.                  ...        0 min,  0.006 sec
     gradient                   ...        0 min,  0.010 sec
 * total energy  :   -49.0152733 Eh     change       -0.1061963E-03 Eh
   gradient norm :     0.0085393 Eh/α   predicted    -0.1583475E-03 (  49.11%)
   displ. norm   :     0.1598849 α      lambda       -0.2210613E-03
   maximum displ.:     0.0835349 α      in ANC's #4, #5, #12, ...

........................................................................
.............................. CYCLE   20 ..............................
........................................................................

 iter      E             dE          RMSdq      gap      omega  full diag
   1    -49.6648739 -0.496649E+02  0.493E-02    2.71       0.0  T
   2    -49.6648778 -0.384297E-05  0.286E-02    2.70       1.0  T
   3    -49.6648775  0.325425E-06  0.794E-03    2.70       2.2  T
   4    -49.6648782 -0.709887E-06  0.204E-03    2.70       8.5  T
   5    -49.6648782 -0.760670E-07  0.924E-04    2.70      18.8  T
   6    -49.6648782 -0.277444E-08  0.413E-04    2.70      42.2  T
     SCC iter.                  ...        0 min,  0.005 sec
     gradient                   ...        0 min,  0.010 sec
 * total energy  :   -49.0153407 Eh     change       -0.6744883E-04 Eh
   gradient norm :     0.0079825 Eh/α   predicted    -0.1133611E-03 (  68.07%)
   displ. norm   :     0.1881568 α      lambda       -0.1881556E-03
   maximum displ.:     0.0878417 α      in ANC's #12, #5, #1, ...
 * RMSD in coord.:     0.6969853 α      energy gain  -0.8898523E-02 Eh

generating ANC from exact Hessian ...
Using Lindh-Hessian (1995)
 Shifting diagonal of input Hessian by    9.6047880958377106E-003
 Lowest  eigenvalues of input Hessian
    0.000000    0.000000    0.000000    0.000000    0.000000    0.000000
    0.010000    0.010438    0.010613    0.011979    0.012458    0.012924
    0.016149    0.017189    0.018747    0.019333    0.020709    0.021880
 Highest eigenvalues
    1.727811    1.852243    1.903631    2.039024    2.083896    2.300877


........................................................................
.............................. CYCLE   21 ..............................
........................................................................

 iter      E             dE          RMSdq      gap      omega  full diag
   1    -49.6639661 -0.496640E+02  0.490E-02    2.69       0.0  T
   2    -49.6639743 -0.813442E-05  0.290E-02    2.70       1.0  T
   3    -49.6639744 -0.910159E-07  0.115E-02    2.70       1.5  T
   4    -49.6639751 -0.763122E-06  0.202E-03    2.70       8.6  T
   5    -49.6639752 -0.470337E-07  0.101E-03    2.70      17.3  T
   6    -49.6639752 -0.140238E-07  0.396E-04    2.70      44.0  T
   7    -49.6639752 -0.109548E-08  0.195E-04    2.70      89.1  T
     SCC iter.                  ...        0 min,  0.006 sec
     gradient                   ...        0 min,  0.010 sec
 * total energy  :   -49.0154239 Eh     change       -0.8315122E-04 Eh
   gradient norm :     0.0078178 Eh/α   predicted     0.0000000E+00 (-100.00%)
   displ. norm   :     0.0527251 α      lambda       -0.8272099E-04
   maximum displ.:     0.0254944 α      in ANC's #4, #2, #11, ...

........................................................................
.............................. CYCLE   22 ..............................
........................................................................

 iter      E             dE          RMSdq      gap      omega  full diag
   1    -49.6638501 -0.496639E+02  0.211E-02    2.70       0.0  T
   2    -49.6638523 -0.224116E-05  0.124E-02    2.70       1.4  T
   3    -49.6638525 -0.127608E-06  0.570E-03    2.70       3.1  T
   4    -49.6638526 -0.178388E-06  0.108E-03    2.70      16.1  T
   5    -49.6638526 -0.966638E-08  0.516E-04    2.70      33.7  T
   6    -49.6638527 -0.219594E-08  0.213E-04    2.70      81.7  T
     SCC iter.                  ...        0 min,  0.005 sec
     gradient                   ...        0 min,  0.010 sec
 * total energy  :   -49.0155066 Eh     change       -0.8272208E-04 Eh
   gradient norm :     0.0024760 Eh/α   predicted    -0.5731814E-04 ( -30.71%)
   displ. norm   :     0.1062999 α      lambda       -0.9378375E-04
   maximum displ.:     0.0542319 α      in ANC's #4, #11, #2, ...

........................................................................
.............................. CYCLE   23 ..............................
........................................................................

 iter      E             dE          RMSdq      gap      omega  full diag
   1    -49.6638391 -0.496638E+02  0.298E-02    2.69       0.0  T
   2    -49.6638412 -0.211914E-05  0.171E-02    2.69       1.0  T
   3    -49.6638411  0.675356E-07  0.608E-03    2.69       2.9  T
   4    -49.6638414 -0.332707E-06  0.119E-03    2.69      14.7  T
   5    -49.6638415 -0.135435E-07  0.578E-04    2.69      30.1  T
   6    -49.6638415 -0.279701E-08  0.220E-04    2.69      79.2  T
     SCC iter.                  ...        0 min,  0.006 sec
     gradient                   ...        0 min,  0.010 sec
 * total energy  :   -49.0155759 Eh     change       -0.6930050E-04 Eh
   gradient norm :     0.0032833 Eh/α   predicted    -0.4742579E-04 ( -31.57%)
   displ. norm   :     0.1681494 α      lambda       -0.9733561E-04
   maximum displ.:     0.0866544 α      in ANC's #11, #4, #2, ...

........................................................................
.............................. CYCLE   24 ..............................
........................................................................

 iter      E             dE          RMSdq      gap      omega  full diag
   1    -49.6635502 -0.496636E+02  0.420E-02    2.69       0.0  T
   2    -49.6635519 -0.165286E-05  0.243E-02    2.69       1.0  T
   3    -49.6635518  0.122435E-06  0.514E-03    2.69       3.4  T
   4    -49.6635521 -0.339952E-06  0.132E-03    2.69      13.2  T
   5    -49.6635521 -0.148426E-07  0.688E-04    2.69      25.3  T
   6    -49.6635521 -0.457408E-08  0.209E-04    2.69      83.5  T
     SCC iter.                  ...        0 min,  0.005 sec
     gradient                   ...        0 min,  0.010 sec
 * total energy  :   -49.0156505 Eh     change       -0.7458085E-04 Eh
   gradient norm :     0.0053176 Eh/α   predicted    -0.5005275E-04 ( -32.89%)
   displ. norm   :     0.2343948 α      lambda       -0.1109513E-03
   maximum displ.:     0.1278975 α      in ANC's #11, #4, #2, ...

........................................................................
.............................. CYCLE   25 ..............................
........................................................................

 iter      E             dE          RMSdq      gap      omega  full diag
   1    -49.6628834 -0.496629E+02  0.549E-02    2.68       0.0  T
   2    -49.6628846 -0.119613E-05  0.320E-02    2.69       1.0  T
   3    -49.6628845  0.477803E-07  0.398E-03    2.69       4.4  T
   4    -49.6628848 -0.264363E-06  0.150E-03    2.69      11.6  T
   5    -49.6628848 -0.195024E-07  0.808E-04    2.69      21.6  T
   6    -49.6628848 -0.948675E-08  0.164E-04    2.69     106.4  T
     SCC iter.                  ...        0 min,  0.005 sec
     gradient                   ...        0 min,  0.010 sec
 * total energy  :   -49.0157259 Eh     change       -0.7542579E-04 Eh
   gradient norm :     0.0057309 Eh/α   predicted    -0.5852390E-04 ( -22.41%)
   displ. norm   :     0.1507212 α      lambda       -0.7232535E-04
   maximum displ.:     0.0833992 α      in ANC's #11, #2, #4, ...

........................................................................
.............................. CYCLE   26 ..............................
........................................................................

 iter      E             dE          RMSdq      gap      omega  full diag
   1    -49.6633478 -0.496633E+02  0.335E-02    2.69       0.0  T
   2    -49.6633483 -0.483326E-06  0.199E-02    2.69       1.0  T
   3    -49.6633480  0.313544E-06  0.408E-03    2.69       4.3  T
   4    -49.6633484 -0.449696E-06  0.897E-04    2.69      19.4  T
   5    -49.6633484 -0.152613E-08  0.465E-04    2.69      37.4  T
     SCC iter.                  ...        0 min,  0.005 sec
     gradient                   ...        0 min,  0.010 sec
 * total energy  :   -49.0157796 Eh     change       -0.5366756E-04 Eh
   gradient norm :     0.0041581 Eh/α   predicted    -0.3699678E-04 ( -31.06%)
   displ. norm   :     0.1366542 α      lambda       -0.7797036E-04
   maximum displ.:     0.0696052 α      in ANC's #11, #2, #3, ...

........................................................................
.............................. CYCLE   27 ..............................
........................................................................

 iter      E             dE          RMSdq      gap      omega  full diag
   1    -49.6647793 -0.496648E+02  0.308E-02    2.69       0.0  T
   2    -49.6647803 -0.107632E-05  0.184E-02    2.69       1.0  T
   3    -49.6647799  0.442953E-06  0.561E-03    2.69       3.1  T
   4    -49.6647805 -0.650351E-06  0.988E-04    2.69      17.6  T
   5    -49.6647805 -0.996008E-08  0.484E-04    2.69      36.0  T
     SCC iter.                  ...        0 min,  0.005 sec
     gradient                   ...        0 min,  0.010 sec
 * total energy  :   -49.0158316 Eh     change       -0.5200976E-04 Eh
   gradient norm :     0.0029909 Eh/α   predicted    -0.3971363E-04 ( -23.64%)
   displ. norm   :     0.1818914 α      lambda       -0.4768561E-04
   maximum displ.:     0.0963584 α      in ANC's #2, #11, #4, ...

........................................................................
.............................. CYCLE   28 ..............................
........................................................................

 iter      E             dE          RMSdq      gap      omega  full diag
   1    -49.6642303 -0.496642E+02  0.390E-02    2.70       0.0  T
   2    -49.6642307 -0.409598E-06  0.231E-02    2.70       1.0  T
   3    -49.6642304  0.247892E-06  0.357E-03    2.70       4.9  T
   4    -49.6642308 -0.361480E-06  0.979E-04    2.70      17.8  T
   5    -49.6642308 -0.632346E-08  0.457E-04    2.70      38.1  T
     SCC iter.                  ...        0 min,  0.005 sec
     gradient                   ...        0 min,  0.010 sec
 * total energy  :   -49.0158649 Eh     change       -0.3331269E-04 Eh
   gradient norm :     0.0038457 Eh/α   predicted    -0.2463194E-04 ( -26.06%)
   displ. norm   :     0.1655625 α      lambda       -0.5896380E-04
   maximum displ.:     0.0874001 α      in ANC's #2, #5, #11, ...

........................................................................
.............................. CYCLE   29 ..............................
........................................................................

 iter      E             dE          RMSdq      gap      omega  full diag
   1    -49.6647856 -0.496648E+02  0.372E-02    2.70       0.0  T
   2    -49.6647860 -0.393720E-06  0.219E-02    2.70       1.0  T
   3    -49.6647857  0.222265E-06  0.327E-03    2.70       5.3  T
   4    -49.6647861 -0.327895E-06  0.994E-04    2.70      17.5  T
   5    -49.6647861 -0.985867E-08  0.451E-04    2.70      38.6  T
     SCC iter.                  ...        0 min,  0.005 sec
     gradient                   ...        0 min,  0.010 sec
 * total energy  :   -49.0159024 Eh     change       -0.3745335E-04 Eh
   gradient norm :     0.0033604 Eh/α   predicted    -0.3029514E-04 ( -19.11%)
   displ. norm   :     0.1732916 α      lambda       -0.3390855E-04
   maximum displ.:     0.0985461 α      in ANC's #2, #5, #11, ...

........................................................................
.............................. CYCLE   30 ..............................
........................................................................

 iter      E             dE          RMSdq      gap      omega  full diag
   1    -49.6638679 -0.496639E+02  0.383E-02    2.70       0.0  T
   2    -49.6638683 -0.385354E-06  0.225E-02    2.70       1.0  T
   3    -49.6638682  0.121256E-06  0.273E-03    2.70       6.4  T
   4    -49.6638684 -0.211720E-06  0.893E-04    2.70      19.5  T
   5    -49.6638684 -0.851876E-08  0.468E-04    2.70      37.2  T
     SCC iter.                  ...        0 min,  0.005 sec
     gradient                   ...        0 min,  0.010 sec
 * total energy  :   -49.0159253 Eh     change       -0.2294367E-04 Eh
   gradient norm :     0.0028748 Eh/α   predicted    -0.1746388E-04 ( -23.88%)
   displ. norm   :     0.1745993 α      lambda        0.3899222E-05
   maximum displ.:     0.0992877 α      in ANC's #2, #5, #11, ...

........................................................................
.............................. CYCLE   31 ..............................
........................................................................

 iter      E             dE          RMSdq      gap      omega  full diag
   1    -49.6623450 -0.496623E+02  0.390E-02    2.70       0.0  T
   2    -49.6623455 -0.511725E-06  0.229E-02    2.70       1.0  T
   3    -49.6623454  0.106037E-06  0.284E-03    2.70       6.1  T
   4    -49.6623456 -0.200742E-06  0.944E-04    2.70      18.4  T
   5    -49.6623456 -0.106015E-07  0.496E-04    2.70      35.1  T
     SCC iter.                  ...        0 min,  0.005 sec
     gradient                   ...        0 min,  0.010 sec
 * total energy  :   -49.0159180 Eh     change        0.7331171E-05 Eh
   gradient norm :     0.0046922 Eh/α   predicted     0.2008524E-05 ( -72.60%)
   displ. norm   :     0.0692445 α      lambda       -0.5801522E-04
   maximum displ.:     0.0447222 α      in ANC's #11, #4, #2, ...

........................................................................
.............................. CYCLE   32 ..............................
........................................................................

 iter      E             dE          RMSdq      gap      omega  full diag
   1    -49.6644144 -0.496644E+02  0.194E-02    2.69       0.0  T
   2    -49.6644151 -0.655443E-06  0.111E-02    2.69       1.6  T
   3    -49.6644151 -0.969386E-08  0.286E-03    2.69       6.1  T
   4    -49.6644151 -0.401684E-07  0.857E-04    2.69      20.3  T
   5    -49.6644151 -0.898843E-08  0.403E-04    2.69      43.1  T
     SCC iter.                  ...        0 min,  0.005 sec
     gradient                   ...        0 min,  0.010 sec
 * total energy  :   -49.0159482 Eh     change       -0.3017488E-04 Eh
   gradient norm :     0.0029269 Eh/α   predicted    -0.2918747E-04 (  -3.27%)
   displ. norm   :     0.0310521 α      lambda       -0.1507927E-04
   maximum displ.:     0.0164015 α      in ANC's #5, #2, #4, ...

........................................................................
.............................. CYCLE   33 ..............................
........................................................................

 iter      E             dE          RMSdq      gap      omega  full diag
   1    -49.6648140 -0.496648E+02  0.933E-03    2.69       0.0  T
   2    -49.6648140 -0.557238E-07  0.555E-03    2.69       3.1  T
   3    -49.6648140  0.426356E-07  0.136E-03    2.69      12.8  T
   4    -49.6648141 -0.577684E-07  0.273E-04    2.69      63.8  T
   5    -49.6648141 -0.661309E-09  0.153E-04    2.69     114.0  T
     SCC iter.                  ...        0 min,  0.005 sec
     gradient                   ...        0 min,  0.010 sec
 * total energy  :   -49.0159603 Eh     change       -0.1212739E-04 Eh
   gradient norm :     0.0014728 Eh/α   predicted    -0.7571858E-05 ( -37.56%)
   displ. norm   :     0.2047112 α      lambda       -0.2464236E-04
   maximum displ.:     0.1144191 α      in ANC's #2, #5, #1, ...

........................................................................
.............................. CYCLE   34 ..............................
........................................................................

 iter      E             dE          RMSdq      gap      omega  full diag
   1    -49.6648105 -0.496648E+02  0.527E-02    2.68       0.0  T
   2    -49.6648110 -0.534310E-06  0.311E-02    2.68       1.0  T
   3    -49.6648104  0.604951E-06  0.469E-03    2.68       3.7  T
   4    -49.6648113 -0.832895E-06  0.111E-03    2.68      15.7  T
   5    -49.6648113 -0.553704E-08  0.586E-04    2.68      29.7  T
   6    -49.6648113 -0.247239E-08  0.217E-04    2.68      80.2  T
     SCC iter.                  ...        0 min,  0.005 sec
     gradient                   ...        0 min,  0.010 sec
 * total energy  :   -49.0159793 Eh     change       -0.1897516E-04 Eh
   gradient norm :     0.0022059 Eh/α   predicted    -0.1255129E-04 ( -33.85%)
   displ. norm   :     0.0653618 α      lambda       -0.7229501E-05
   maximum displ.:     0.0379004 α      in ANC's #2, #5, #3, ...

........................................................................
.............................. CYCLE   35 ..............................
........................................................................

 iter      E             dE          RMSdq      gap      omega  full diag
   1    -49.6646453 -0.496646E+02  0.166E-02    2.68       0.0  T
   2    -49.6646453 -0.532974E-07  0.976E-03    2.68       1.8  T
   3    -49.6646453  0.504765E-07  0.138E-03    2.68      12.6  T
   4    -49.6646453 -0.721154E-07  0.363E-04    2.68      47.9  T
   5    -49.6646453 -0.882494E-09  0.174E-04    2.68     100.3  T
     SCC iter.                  ...        0 min,  0.005 sec
     gradient                   ...        0 min,  0.010 sec
 * total energy  :   -49.0159855 Eh     change       -0.6212804E-05 Eh
   gradient norm :     0.0016029 Eh/α   predicted    -0.3634161E-05 ( -41.51%)
   displ. norm   :     0.1992745 α      lambda       -0.1573195E-04
   maximum displ.:     0.1118044 α      in ANC's #2, #5, #3, ...

........................................................................
.............................. CYCLE   36 ..............................
........................................................................

 iter      E             dE          RMSdq      gap      omega  full diag
   1    -49.6645698 -0.496646E+02  0.527E-02    2.68       0.0  T
   2    -49.6645705 -0.751270E-06  0.310E-02    2.68       1.0  T
   3    -49.6645697  0.819581E-06  0.556E-03    2.68       3.1  T
   4    -49.6645708 -0.109065E-05  0.120E-03    2.68      14.5  T
   5    -49.6645708 -0.123380E-07  0.603E-04    2.68      28.9  T
   6    -49.6645708 -0.176559E-08  0.237E-04    2.68      73.4  T
     SCC iter.                  ...        0 min,  0.005 sec
     gradient                   ...        0 min,  0.010 sec
 * total energy  :   -49.0159964 Eh     change       -0.1094835E-04 Eh
   gradient norm :     0.0012366 Eh/α   predicted    -0.8005792E-05 ( -26.88%)
   displ. norm   :     0.0215291 α      lambda       -0.3461177E-05
   maximum displ.:     0.0154201 α      in ANC's #11, #4, #3, ...

........................................................................
.............................. CYCLE   37 ..............................
........................................................................

 iter      E             dE          RMSdq      gap      omega  full diag
   1    -49.6648409 -0.496648E+02  0.622E-03    2.68       0.0  T
   2    -49.6648409 -0.166492E-07  0.368E-03    2.68       4.7  T
   3    -49.6648409  0.128914E-07  0.729E-04    2.68      23.9  T
   4    -49.6648409 -0.172919E-07  0.160E-04    2.68     109.0  T
     SCC iter.                  ...        0 min,  0.004 sec
     gradient                   ...        0 min,  0.010 sec
 * total energy  :   -49.0160007 Eh     change       -0.4318434E-05 Eh
   gradient norm :     0.0009052 Eh/α   predicted    -0.1732838E-05 ( -59.87%)
   displ. norm   :     0.0824237 α      lambda       -0.9332902E-05
   maximum displ.:     0.0500915 α      in ANC's #11, #4, #3, ...

   *** GEOMETRY OPTIMIZATION CONVERGED AFTER 37 ITERATIONS ***

------------------------------------------------------------------------
 total energy gain   :        -0.0095585 Eh       -5.9981 kcal/mol
 total RMSD          :         0.6825032 a0        0.3612 Å
 total power (kW/mol):        -0.6782671 (step)  -32.4296 (real)
------------------------------------------------------------------------

 ANCopt (total)                0 d,  0 h,  0 min,  0.774 sec
 optimizer setup                ...        0 min,  0.000 sec (  0.021%)
 model hessian                  ...        0 min,  0.019 sec (  2.464%)
 ANC generation                 ...        0 min,  0.002 sec (  0.206%)
 coordinate transformation      ...        0 min,  0.000 sec (  0.028%)
 single point calculation       ...        0 min,  0.707 sec ( 91.407%)
 optimization log               ...        0 min,  0.019 sec (  2.480%)
 hessian update                 ...        0 min,  0.000 sec (  0.041%)
 rational function              ...        0 min,  0.025 sec (  3.229%)

================
 final structure:
================
33
 xtb: 6.7.1 (edcfbbe)
C            5.21125403538862        2.78295029528518        0.47168194873775
N            4.75765178303202        1.44100263541302        0.17899534042145
C            4.16766907681007        0.71162850114655        1.27523473539354
C            5.01002723973380        0.91318451650176       -1.04346879136621
O            5.52717281749679        1.56943001799084       -1.92933436094511
C            4.59174053672290       -0.54838694752296       -1.23545222030039
N            5.21795524049610       -1.23490957035588       -2.34954351558042
C            4.79026195735120       -0.75716599983053       -3.65114523732175
C            6.67240082183058       -1.27081276989976       -2.22184463897733
C            7.05910363829607       -2.06497974374240       -1.00422226172385
C            6.75700354416040       -3.41975250525371       -0.92472446113953
C            7.08429980088784       -4.16418826841120        0.19373327685632
C            7.72733180579353       -3.56555841632984        1.26505289196502
C            8.03461392006598       -2.21812135747925        1.21661545335993
C            7.69320545739174       -1.49118331483297        0.08980955222864
F            7.98899725346028       -0.17087085631348        0.07767373550769
H            4.36801293974238        3.41954910139965        0.74774963826317
H            5.68391836389979        3.17793548447808       -0.42484476020463
H            5.93793807509244        2.76965504160829        1.28606801579196
H            3.87058919785284        1.42329397746511        2.04370598113781
H            4.87639570055034        0.00382255770760        1.71907768487030
H            3.28008924457241        0.16561697689110        0.95422946204086
H            3.50762603063330       -0.57867723983300       -1.38634446604544
H            4.82781404405336       -1.11992851589473       -0.33411375833065
H            3.70188785517097       -0.79193085248035       -3.69274912091564
H            5.18696822564583       -1.42895412565520       -4.41257445803583
H            5.12273042787607        0.26301642841180       -3.86701660467345
H            7.11051692355520       -0.26418259386142       -2.18088622501044
H            7.06164760755620       -1.77707934066343       -3.11005915367156
H            6.24991723239769       -3.87972814159627       -1.75864154051981
H            6.84026495316188       -5.21505516516438        0.23134966535766
H            7.98852897321735       -4.14417287115574        2.13798215910966
H            8.53206527610289       -1.72194693802333        2.03560603372431

 Bond Distances (Angstroems)
 ---------------------------
C1-N2=1.4465         C1-H17=1.0920        C1-H18=1.0877        C1-H19=1.0915        N2-C1=1.4465         N2-C3=1.4428         
N2-C4=1.3553         C3-N2=1.4428         C3-H20=1.0887        C3-H21=1.0956        C3-H22=1.0904        C4-N2=1.3553         
C4-O5=1.2177         C4-C6=1.5323         O5-C4=1.2177         C6-C4=1.5323         C6-N7=1.4507         C6-H23=1.0950        
C6-H24=1.0931        N7-C6=1.4507         N7-C8=1.4510         N7-C9=1.4605         C8-N7=1.4510         C8-H25=1.0897        
C8-H26=1.0902        C8-H27=1.0945        C9-N7=1.4605         C9-C10=1.5043        C9-H28=1.0986        C9-H29=1.0940        
C10-C9=1.5043        C10-C11=1.3903       C10-C15=1.3886       C11-C10=1.3903       C11-C12=1.3828       C11-H30=1.0789       
C12-C11=1.3828       C12-C13=1.3855       C12-H31=1.0795       C13-C12=1.3855       C13-C14=1.3829       C13-H32=1.0794       
C14-C13=1.3829       C14-C15=1.3837       C14-H33=1.0791       C15-C10=1.3886       C15-C14=1.3837       C15-F16=1.3531       
F16-C15=1.3531       H17-C1=1.0920        H18-C1=1.0877        H19-C1=1.0915        H20-C3=1.0887        H21-C3=1.0956        
H22-C3=1.0904        H23-C6=1.0950        H24-C6=1.0931        H25-C8=1.0897        H26-C8=1.0902        H27-C8=1.0945        
H28-C9=1.0986        H29-C9=1.0940        H30-C11=1.0789       H31-C12=1.0795       H32-C13=1.0794       H33-C14=1.0791       
 C  H  Rav=1.0893 sigma=0.0062  Rmin=1.0789  Rmax=1.0986    17
 C  C  Rav=1.4188 sigma=0.0579  Rmin=1.3828  Rmax=1.5323     8
 N  C  Rav=1.4345 sigma=0.0358  Rmin=1.3553  Rmax=1.4605     6
 O  C  Rav=1.2177 sigma=0.0000  Rmin=1.2177  Rmax=1.2177     1
 F  C  Rav=1.3531 sigma=0.0000  Rmin=1.3531  Rmax=1.3531     1

 selected bond angles (degree)
 --------------------
H17-C1-N2=110.48               H18-C1-N2=107.84               H18-C1-H17=109.40              H19-C1-N2=110.39               
H19-C1-H17=109.42              H19-C1-H18=109.27              C3-N2-C1=116.33                C4-N2-C1=119.04                
C4-N2-C3=124.37                H20-C3-N2=108.51               H21-C3-N2=111.71               H21-C3-H20=108.23              
H22-C3-N2=111.24               H22-C3-H20=108.24              H22-C3-H21=108.80              O5-C4-N2=121.69                
C6-C4-N2=115.70                C6-C4-O5=122.60                N7-C6-C4=115.45                H23-C6-C4=108.30               
H23-C6-N7=107.97               H24-C6-C4=109.66               H24-C6-N7=107.01               H24-C6-H23=108.24              
C8-N7-C6=113.94                C9-N7-C6=111.98                C9-N7-C8=112.34                H25-C8-N7=108.55               
H26-C8-N7=108.44               H26-C8-H25=108.49              H27-C8-N7=113.22               H27-C8-H25=109.00              
H27-C8-H26=109.03              C10-C9-N7=109.86               H28-C9-N7=112.20               H28-C9-C10=110.55              
H29-C9-N7=107.14               H29-C9-C10=108.75              H29-C9-H28=108.20              C11-C10-C9=120.32              
C15-C10-C9=122.48              C15-C10-C11=117.18             

 selected dihedral angles (degree)
 ---------------------------------
C3-N2-C1-H17=296.01           C3-N2-C1-H18=176.49           C3-N2-C1-H19= 57.18           C4-N2-C1-H17=121.59           
C4-N2-C1-H18=  2.07           C4-N2-C1-H19=242.76           H20-C3-N2-C1= 18.82           H20-C3-N2-C4=192.91           
H21-C3-N2-C1=259.59           H21-C3-N2-C4= 73.68           H22-C3-N2-C1=137.79           H22-C3-N2-C4=311.88           
O5-C4-N2-C1=354.96            O5-C4-N2-C3=181.02            C6-C4-N2-C1=175.50            C6-C4-N2-C3=  1.55            
N7-C6-C4-N2=198.62            N7-C6-C4-O5= 19.16            H23-C6-C4-N2= 77.48           H23-C6-C4-O5=258.02           
H24-C6-C4-N2=319.56           H24-C6-C4-O5=140.11           C8-N7-C6-C4=290.99            C8-N7-C6-H23= 52.31           
C8-N7-C6-H24=168.63           C9-N7-C6-C4= 59.87            C9-N7-C6-H23=181.19           C9-N7-C6-H24=297.51           
H25-C8-N7-C6=306.54           H25-C8-N7-C9=177.83           H26-C8-N7-C6=188.85           H26-C8-N7-C9= 60.15           
H27-C8-N7-C6= 67.71           H27-C8-N7-C9=299.01           C10-C9-N7-C6= 63.58           C10-C9-N7-C8=193.31           
H28-C9-N7-C6=300.18           H28-C9-N7-C8= 69.90           H29-C9-N7-C6=181.56           H29-C9-N7-C8=311.28           
C11-C10-C9-N7= 63.76          C11-C10-C9-H28=188.13         C11-C10-C9-H29=306.79         C15-C10-C9-N7=245.34          
C15-C10-C9-H28=  9.71         C15-C10-C9-H29=128.37         
           -------------------------------------------------
          |                Final Singlepoint                |
           -------------------------------------------------

          ...................................................
          :                      SETUP                      :
          :.................................................:
          :  # basis functions                  81          :
          :  # atomic orbitals                  81          :
          :  # shells                           49          :
          :  # electrons                        88          :
          :  max. iterations                   250          :
          :  Hamiltonian                  GFN2-xTB          :
          :  restarted?                      false          :
          :  GBSA solvation                  false          :
          :  PC potential                    false          :
          :  electronic temp.          300.0000000     K    :
          :  accuracy                    1.0000000          :
          :  -> integral cutoff          0.2500000E+02      :
          :  -> integral neglect         0.1000000E-07      :
          :  -> SCF convergence          0.1000000E-05 Eh   :
          :  -> wf. convergence          0.1000000E-03 e    :
          :  Broyden damping             0.4000000          :
          :  net charge                          0          :
          :  unpaired electrons                  0          :
          ...................................................

 iter      E             dE          RMSdq      gap      omega  full diag
   1    -49.6648409 -0.496648E+02  0.845E-05    2.68       0.0  T
   2    -49.6648409 -0.551026E-10  0.522E-05    2.68     333.8  T
   3    -49.6648409 -0.341274E-10  0.305E-05    2.68     570.1  T

   *** convergence criteria satisfied after 3 iterations ***

         #    Occupation            Energy/Eh            Energy/eV
      -------------------------------------------------------------
         1        2.0000           -0.8109637             -22.0674
       ...           ...                  ...                  ...
        38        2.0000           -0.4412019             -12.0057
        39        2.0000           -0.4277719             -11.6403
        40        2.0000           -0.4134960             -11.2518
        41        2.0000           -0.4055242             -11.0349
        42        2.0000           -0.3979427             -10.8286
        43        2.0000           -0.3837318             -10.4419
        44        2.0000           -0.3360562              -9.1446 (HOMO)
        45                         -0.2374667              -6.4618 (LUMO)
        46                         -0.2319237              -6.3110
        47                         -0.1979432              -5.3863
        48                         -0.1067042              -2.9036
        49                         -0.0043194              -0.1175
       ...                                ...                  ...
        81                          0.6512248              17.7207
      -------------------------------------------------------------
                  HL-Gap            0.0985895 Eh            2.6828 eV
             Fermi-level           -0.2867614 Eh           -7.8032 eV

 SCC (total)                   0 d,  0 h,  0 min,  0.017 sec
 SCC setup                      ...        0 min,  0.000 sec (  0.584%)
 Dispersion                     ...        0 min,  0.000 sec (  0.714%)
 classical contributions        ...        0 min,  0.000 sec (  0.326%)
 integral evaluation            ...        0 min,  0.004 sec ( 21.279%)
 iterations                     ...        0 min,  0.003 sec ( 16.934%)
 molecular gradient             ...        0 min,  0.010 sec ( 59.677%)
 printout                       ...        0 min,  0.000 sec (  0.423%)

         :::::::::::::::::::::::::::::::::::::::::::::::::::::
         ::                     SUMMARY                     ::
         :::::::::::::::::::::::::::::::::::::::::::::::::::::
         :: total energy             -49.016000737015 Eh    ::
         :: gradient norm              0.000905393028 Eh/a0 ::
         :: HOMO-LUMO gap              2.682757982448 eV    ::
         ::.................................................::
         :: SCC energy               -49.664290253319 Eh    ::
         :: -> isotropic ES            0.056677677293 Eh    ::
         :: -> anisotropic ES          0.003282966043 Eh    ::
         :: -> anisotropic XC          0.020682397907 Eh    ::
         :: -> dispersion             -0.031398730360 Eh    ::
         :: repulsion energy           0.648289516304 Eh    ::
         :: add. restraining           0.000000000000 Eh    ::
         :: total charge              -0.000000000000 e     ::
         :::::::::::::::::::::::::::::::::::::::::::::::::::::

           -------------------------------------------------
          |                Property Printout                |
           -------------------------------------------------

    * Orbital Energies and Occupations

         #    Occupation            Energy/Eh            Energy/eV
      -------------------------------------------------------------
         1        2.0000           -0.8109637             -22.0674
       ...           ...                  ...                  ...
        32        2.0000           -0.4736534             -12.8888
        33        2.0000           -0.4668714             -12.7042
        34        2.0000           -0.4610344             -12.5454
        35        2.0000           -0.4582533             -12.4697
        36        2.0000           -0.4551971             -12.3865
        37        2.0000           -0.4500174             -12.2456
        38        2.0000           -0.4412019             -12.0057
        39        2.0000           -0.4277719             -11.6403
        40        2.0000           -0.4134960             -11.2518
        41        2.0000           -0.4055242             -11.0349
        42        2.0000           -0.3979427             -10.8286
        43        2.0000           -0.3837318             -10.4419
        44        2.0000           -0.3360562              -9.1446 (HOMO)
        45                         -0.2374667              -6.4618 (LUMO)
        46                         -0.2319237              -6.3110
        47                         -0.1979432              -5.3863
        48                         -0.1067042              -2.9036
        49                         -0.0043194              -0.1175
        50                          0.0425927               1.1590
        51                          0.0548421               1.4923
        52                          0.0718072               1.9540
        53                          0.0895233               2.4361
        54                          0.1049017               2.8545
        55                          0.1153017               3.1375
       ...                                ...                  ...
        81                          0.6512248              17.7207
      -------------------------------------------------------------
                  HL-Gap            0.0985895 Eh            2.6828 eV
             Fermi-level           -0.2867614 Eh           -7.8032 eV

     #   Z          covCN         q      C6AA      α(0)
     1   6 C        3.702    -0.047    21.581     6.642
     2   7 N        2.731    -0.097    23.132     7.143
     3   6 C        3.694    -0.047    21.604     6.650
     4   6 C        2.760     0.258    22.651     7.794
     5   8 O        0.859    -0.447    22.637     6.379
     6   6 C        3.758    -0.016    20.915     6.520
     7   7 N        2.726    -0.169    24.651     7.374
     8   6 C        3.704    -0.036    21.363     6.608
     9   6 C        3.763     0.008    20.481     6.451
    10   6 C        2.967    -0.005    28.151     8.703
    11   6 C        2.930    -0.036    28.886     8.814
    12   6 C        2.917    -0.036    28.904     8.816
    13   6 C        2.923    -0.034    28.836     8.806
    14   6 C        2.917    -0.052    29.302     8.877
    15   6 C        2.791     0.158    24.560     8.118
    16   9 F        0.787    -0.230    11.555     4.015
    17   1 H        0.924     0.043     2.403     2.424
    18   1 H        0.925     0.089     1.885     2.147
    19   1 H        0.924     0.049     2.331     2.388
    20   1 H        0.925     0.063     2.170     2.304
    21   1 H        0.924     0.046     2.374     2.410
    22   1 H        0.924     0.050     2.314     2.379
    23   1 H        0.924     0.046     2.366     2.405
    24   1 H        0.924     0.041     2.431     2.438
    25   1 H        0.925     0.034     2.524     2.484
    26   1 H        0.925     0.034     2.524     2.485
    27   1 H        0.924     0.046     2.373     2.409
    28   1 H        0.923     0.048     2.349     2.397
    29   1 H        0.924     0.045     2.382     2.413
    30   1 H        0.926     0.054     2.265     2.354
    31   1 H        0.926     0.042     2.424     2.435
    32   1 H        0.926     0.042     2.424     2.435
    33   1 H        0.926     0.053     2.277     2.360

 Mol. C6AA /au·bohr⁶  :      10655.761746
 Mol. C8AA /au·bohr⁸  :     240967.929080
 Mol. α(0) /au        :        158.376683


Wiberg/Mayer (AO) data.
largest (>0.10) Wiberg bond orders for each atom

 ---------------------------------------------------------------------------
     #   Z sym  total        # sym  WBO       # sym  WBO       # sym  WBO
 ---------------------------------------------------------------------------
     1   6 C    3.966 --     2 N    0.996    17 H    0.978    19 H    0.977
                            18 H    0.972
     2   7 N    3.487 --     4 C    1.245     3 C    1.007     1 C    0.996
                             5 O    0.194
     3   6 C    3.976 --     2 N    1.007    20 H    0.981    22 H    0.978
                            21 H    0.973
     4   6 C    3.949 --     5 O    1.666     2 N    1.245     6 C    0.948
     5   8 O    1.999 --     4 C    1.666     2 N    0.194
     6   6 C    3.992 --     7 N    1.014    24 H    0.959    23 H    0.953
                             4 C    0.948
     7   7 N    3.125 --     6 C    1.014     8 C    1.010     9 C    0.988
     8   6 C    3.982 --     7 N    1.010    26 H    0.982    25 H    0.982
                            27 H    0.974
     9   6 C    3.985 --    10 C    1.005     7 N    0.988    28 H    0.963
                            29 H    0.961
    10   6 C    3.988 --    11 C    1.406    15 C    1.375     9 C    1.005
                            13 C    0.109
    11   6 C    3.990 --    12 C    1.451    10 C    1.406    30 H    0.968
                            14 C    0.110
    12   6 C    3.992 --    11 C    1.451    13 C    1.432    31 H    0.970
    13   6 C    3.991 --    14 C    1.443    12 C    1.432    32 H    0.971
                            10 C    0.109
    14   6 C    3.989 --    13 C    1.443    15 C    1.398    33 H    0.967
                            11 C    0.110
    15   6 C    3.884 --    14 C    1.398    10 C    1.375    16 F    0.953
    16   9 F    1.084 --    15 C    0.953
    17   1 H    0.998 --     1 C    0.978
    18   1 H    0.992 --     1 C    0.972
    19   1 H    0.997 --     1 C    0.977
    20   1 H    0.996 --     3 C    0.981
    21   1 H    0.998 --     3 C    0.973
    22   1 H    0.997 --     3 C    0.978
    23   1 H    0.998 --     6 C    0.953
    24   1 H    0.998 --     6 C    0.959
    25   1 H    0.998 --     8 C    0.982
    26   1 H    0.999 --     8 C    0.982
    27   1 H    0.998 --     8 C    0.974
    28   1 H    0.997 --     9 C    0.963
    29   1 H    0.998 --     9 C    0.961
    30   1 H    0.997 --    11 C    0.968
    31   1 H    0.998 --    12 C    0.970
    32   1 H    0.998 --    13 C    0.971
    33   1 H    0.997 --    14 C    0.967
 ---------------------------------------------------------------------------

Topologies differ in total number of bonds
Writing topology from bond orders to xtbtopo.mol

molecular dipole:
                 x           y           z       tot (Debye)
 q only:       -0.738      -0.892       1.111
   full:       -0.762      -0.807       1.312       4.369
molecular quadrupole (traceless):
                xx          xy          yy          xz          yz          zz
 q only:      -18.306     -18.615      12.387      17.249       6.963       5.919
  q+dip:      -18.399     -17.903      11.125      22.442       6.768       7.275
   full:      -16.538     -18.801       9.997      21.111       6.810       6.542

           -------------------------------------------------
          |                Geometry Summary                 |
           -------------------------------------------------

      molecular mass/u    :      224.2750380
   center of mass at/Å    :        6.1229268      -0.7414829      -0.6098328
  moments of inertia/u·Å² :        0.6754191E+03   0.1232310E+04   0.1555906E+04
rotational constants/cm⁻¹ :        0.2495877E-01   0.1367970E-01   0.1083461E-01

 * 30 selected distances

     #   Z          #   Z                                           value/Å
     1   6 C        2   7 N                                       1.4464593
     2   7 N        3   6 C                                       1.4428470
     2   7 N        4   6 C                                       1.3552506
     4   6 C        5   8 O                                       1.2177257
     6   6 C        7   7 N                                       1.4507439
     7   7 N        8   6 C                                       1.4509748
     7   7 N        9   6 C                                       1.4604822 (max)
    10   6 C       11   6 C                                       1.3903215
    11   6 C       12   6 C                                       1.3828433
    12   6 C       13   6 C                                       1.3854869
    13   6 C       14   6 C                                       1.3828794
    10   6 C       15   6 C                                       1.3886084
    14   6 C       15   6 C                                       1.3837234
     1   6 C       17   1 H                                       1.0920289
     1   6 C       18   1 H                                       1.0877432
     1   6 C       19   1 H                                       1.0915454
     3   6 C       20   1 H                                       1.0887022
     3   6 C       21   1 H                                       1.0955727
     3   6 C       22   1 H                                       1.0903995
     6   6 C       23   1 H                                       1.0949842
     6   6 C       24   1 H                                       1.0930699
     8   6 C       25   1 H                                       1.0897238
     8   6 C       26   1 H                                       1.0901605
     8   6 C       27   1 H                                       1.0944899
     9   6 C       28   1 H                                       1.0986027
     9   6 C       29   1 H                                       1.0939580
    11   6 C       30   1 H                                       1.0789495 (min)
    12   6 C       31   1 H                                       1.0794857
    13   6 C       32   1 H                                       1.0793629
    14   6 C       33   1 H                                       1.0790703

 * 4 distinct bonds (by element types)

   Z      Z             #   av. dist./Å        max./Å        min./Å
   1 H    6 C          17     1.0892853     1.0986027     1.0789495
   6 C    6 C           6     1.3856438     1.3903215     1.3828433
   6 C    7 N           6     1.4344596     1.4604822     1.3552506
   6 C    8 O           1     1.2177257     1.2177257     1.2177257


optimized geometry written to: xtbopt.xyz


           -------------------------------------------------
          | TOTAL ENERGY              -49.016000737015 Eh   |
Note: The following floating-point exceptions are signalling: IEEE_UNDERFLOW_FLAG IEEE_DENORMAL
normal termination of xtb
          | GRADIENT NORM               0.000905393028 Eh/α |
          | HOMO-LUMO GAP               2.682757982448 eV   |
           -------------------------------------------------
########################################################################
[WARNING] Runtime exception occurred
-2- restart_readRestart: Dimension missmatch in restart file.
-1- restart_readRestart: Number of electron missmatch in restart file.
########################################################################

------------------------------------------------------------------------
 * finished run on 2026/03/18 at 16:16:24.597     
------------------------------------------------------------------------
 total:
 * wall-time:     0 d,  0 h,  0 min,  1.050 sec
 *  cpu-time:     0 d,  0 h,  0 min,  0.788 sec
 * ratio c/w:     0.750 speedup
 SCF:
 * wall-time:     0 d,  0 h,  0 min,  0.085 sec
 *  cpu-time:     0 d,  0 h,  0 min,  0.029 sec
 * ratio c/w:     0.339 speedup
 ANC optimizer:
 * wall-time:     0 d,  0 h,  0 min,  0.796 sec
 *  cpu-time:     0 d,  0 h,  0 min,  0.749 sec
 * ratio c/w:     0.941 speedup

