      -----------------------------------------------------------      
     |                   =====================                   |     
     |                           x T B                           |     
     |                   =====================                   |     
     |                         S. Grimme                         |     
     |          Mulliken Center for Theoretical Chemistry        |     
     |                    University of Bonn                     |     
      -----------------------------------------------------------      

   * xtb version 6.7.1 (edcfbbe) compiled by 'conda@c0858423619e' on 2025-09-04

   xtb is free software: you can redistribute it and/or modify it under
   the terms of the GNU Lesser General Public License as published by
   the Free Software Foundation, either version 3 of the License, or
   (at your option) any later version.
   
   xtb is distributed in the hope that it will be useful,
   but WITHOUT ANY WARRANTY; without even the implied warranty of
   MERCHANTABILITY or FITNESS FOR A PARTICULAR PURPOSE.  See the
   GNU Lesser General Public License for more details.
   
   Cite this work as:
   * C. Bannwarth, E. Caldeweyher, S. Ehlert, A. Hansen, P. Pracht,
     J. Seibert, S. Spicher, S. Grimme, WIREs Comput. Mol. Sci., 2020, 11,
     e01493. DOI: 10.1002/wcms.1493
   
   for GFN2-xTB:
   * C. Bannwarth, S. Ehlert and S. Grimme., J. Chem. Theory Comput., 2019,
     15, 1652-1671. DOI: 10.1021/acs.jctc.8b01176
   for GFN1-xTB:
   * S. Grimme, C. Bannwarth, P. Shushkov, J. Chem. Theory Comput., 2017,
     13, 1989-2009. DOI: 10.1021/acs.jctc.7b00118
   for GFN0-xTB:
   * P. Pracht, E. Caldeweyher, S. Ehlert, S. Grimme, ChemRxiv, 2019, preprint.
     DOI: 10.26434/chemrxiv.8326202.v1
   for GFN-FF:
   * S. Spicher and S. Grimme, Angew. Chem. Int. Ed., 2020, 59, 15665-15673.
     DOI: 10.1002/anie.202004239
   
   for ALPB and GBSA implicit solvation:
   * S. Ehlert, M. Stahn, S. Spicher, S. Grimme, J. Chem. Theory Comput.,
     2021, 17, 4250-4261. DOI: 10.1021/acs.jctc.1c00471
   
   for ddCOSMO and CPCM-X implicit solvation:
   * M. Stahn, S. Ehlert, S. Grimme, J. Phys. Chem. A,
     2023, XX, XXXX-XXXX. DOI: 10.1021/acs.jpca.3c04382
   
   for DFT-D4:
   * E. Caldeweyher, C. Bannwarth and S. Grimme, J. Chem. Phys., 2017,
     147, 034112. DOI: 10.1063/1.4993215
   * E. Caldeweyher, S. Ehlert, A. Hansen, H. Neugebauer, S. Spicher,
     C. Bannwarth and S. Grimme, J. Chem. Phys., 2019, 150, 154122.
     DOI: 10.1063/1.5090222
   * E. Caldeweyher, J.-M. Mewes, S. Ehlert and S. Grimme, Phys. Chem. Chem. Phys.
     2020, 22, 8499-8512. DOI: 10.1039/D0CP00502A
   
   for sTDA-xTB:
   * S. Grimme and C. Bannwarth, J. Chem. Phys., 2016, 145, 054103.
     DOI: 10.1063/1.4959605
   
   in the mass-spec context:
   * V. Asgeirsson, C. Bauer and S. Grimme, Chem. Sci., 2017, 8, 4879.
     DOI: 10.1039/c7sc00601b
   * J. Koopman and S. Grimme, ACS Omega 2019, 4, 12, 15120-15133.
     DOI: 10.1021/acsomega.9b02011
   
   for metadynamics refer to:
   * S. Grimme, J. Chem. Theory Comput., 2019, 155, 2847-2862
     DOI: 10.1021/acs.jctc.9b00143
   
   for SPH calculations refer to:
   * S. Spicher and S. Grimme, J. Chem. Theory Comput., 2021, 17, 1701-1714
     DOI: 10.1021/acs.jctc.0c01306
   
   for ONIOM refer to:
   * C. Plett, A. Katbashev, S. Ehlert, S. Grimme, M. Bursch,
     Phys. Chem. Chem. Phys., 2023, 25, 17860-17868. DOI: 10.1039/D3CP02178E
   
   for DIPRO refer to:
   * J. Kohn, N. Gildemeister, S. Grimme, D. Fazzi, A. Hansen,
     J. Chem. Phys., 2023, just accepted.
   
   for PTB refer to:
   * S. Grimme, M. Mueller, A. Hansen, J. Chem. Phys., 2023, 158, 124111.
     DOI: 10.1063/5.0137838
   
   with help from (in alphabetical order)
   P. Atkinson, C. Bannwarth, F. Bohle, G. Brandenburg, E. Caldeweyher
   M. Checinski, S. Dohm, S. Ehlert, S. Ehrlich, I. Gerasimov, C. Hölzer
   A. Katbashev, J. Kohn, J. Koopman, C. Lavigne, S. Lehtola, F. März, M. Müller,
   F. Musil, H. Neugebauer, J. Pisarek, C. Plett, P. Pracht, F. Pultar,
   J. Seibert, P. Shushkov, S. Spicher, M. Stahn, M. Steiner, T. Strunk,
   J. Stückrath, T. Rose, and J. Unsleber
   
 * started run on 2026/01/25 at 20:06:28.123     
   ID    Z sym.   atoms
    1    6 C      1, 2, 5-10, 12, 13, 16, 17
    2    8 O      3, 14
    3    7 N      4, 15
    4    9 F      11
    5    1 H      18-32

           -------------------------------------------------
          |                Calculation Setup                |
           -------------------------------------------------

          program call               : xtb /home/tuu61186/STEPs/1_xTB_structureOPT/../0_openBable_SMILES/out/xyz/STEPs_0001.xyz --gfn 2 --opt
          hostname                   : c01
          coordinate file            : /home/tuu61186/STEPs/1_xTB_structureOPT/../0_openBable_SMILES/out/xyz/STEPs_0001.xyz
          omp threads                :                     1


           -------------------------------------------------
          |                 G F N 2 - x T B                 |
           -------------------------------------------------

        Reference                      10.1021/acs.jctc.8b01176
      * Hamiltonian:
        H0-scaling (s, p, d)           1.850000    2.230000    2.230000
        zeta-weighting                 0.500000
      * Dispersion:
        s8                             2.700000
        a1                             0.520000
        a2                             5.000000
        s9                             5.000000
      * Repulsion:
        kExp                           1.500000    1.000000
        rExp                           1.000000
      * Coulomb:
        alpha                          2.000000
        third order                    shell-resolved
        anisotropic                    true
        a3                             3.000000
        a5                             4.000000
        cn-shift                       1.200000
        cn-exp                         4.000000
        max-rad                        5.000000

q/qsh data taken from xtbrestart
CAMM data taken from xtbrestart

          ...................................................
          :                      SETUP                      :
          :.................................................:
          :  # basis functions                  83          :
          :  # atomic orbitals                  83          :
          :  # shells                           49          :
          :  # electrons                        92          :
          :  max. iterations                   250          :
          :  Hamiltonian                  GFN2-xTB          :
          :  restarted?                       true          :
          :  GBSA solvation                  false          :
          :  PC potential                    false          :
          :  electronic temp.          300.0000000     K    :
          :  accuracy                    1.0000000          :
          :  -> integral cutoff          0.2500000E+02      :
          :  -> integral neglect         0.1000000E-07      :
          :  -> SCF convergence          0.1000000E-05 Eh   :
          :  -> wf. convergence          0.1000000E-03 e    :
          :  Broyden damping             0.4000000          :
          :  net charge                          0          :
          :  unpaired electrons                  0          :
          ...................................................

 iter      E             dE          RMSdq      gap      omega  full diag
   1    -52.6835766 -0.526836E+02  0.499E+00    3.31       0.0  T
   2    -52.6918540 -0.827742E-02  0.294E+00    3.41       1.0  T
   3    -52.6908297  0.102426E-02  0.362E-01    3.45       1.0  T
   4    -52.6929648 -0.213512E-02  0.116E-01    3.46       1.0  T
   5    -52.6931847 -0.219872E-03  0.661E-02    3.46       1.0  T
   6    -52.6932073 -0.225795E-04  0.205E-02    3.45       1.0  T
   7    -52.6932162 -0.887117E-05  0.608E-03    3.45       2.9  T
   8    -52.6932164 -0.255266E-06  0.295E-03    3.45       6.0  T
   9    -52.6932165 -0.569613E-07  0.980E-04    3.45      18.0  T
  10    -52.6932165 -0.499538E-08  0.469E-04    3.45      37.7  T

   *** convergence criteria satisfied after 10 iterations ***

         #    Occupation            Energy/Eh            Energy/eV
      -------------------------------------------------------------
         1        2.0000           -0.8329447             -22.6656
       ...           ...                  ...                  ...
        40        2.0000           -0.4477749             -12.1846
        41        2.0000           -0.4377590             -11.9120
        42        2.0000           -0.4220714             -11.4851
        43        2.0000           -0.4068396             -11.0707
        44        2.0000           -0.3917172             -10.6592
        45        2.0000           -0.3877889             -10.5523
        46        2.0000           -0.3809168             -10.3653 (HOMO)
        47                         -0.2540266              -6.9124 (LUMO)
        48                         -0.2487132              -6.7678
        49                         -0.2167394              -5.8978
        50                         -0.2114788              -5.7546
        51                         -0.1236249              -3.3640
       ...                                ...                  ...
        83                          0.6136268              16.6976
      -------------------------------------------------------------
                  HL-Gap            0.1268902 Eh            3.4529 eV
             Fermi-level           -0.3174717 Eh           -8.6388 eV

 SCC (total)                   0 d,  0 h,  0 min,  0.051 sec
 SCC setup                      ...        0 min,  0.001 sec (  1.132%)
 Dispersion                     ...        0 min,  0.000 sec (  0.488%)
 classical contributions        ...        0 min,  0.000 sec (  0.602%)
 integral evaluation            ...        0 min,  0.004 sec (  7.815%)
 iterations                     ...        0 min,  0.035 sec ( 68.898%)
 molecular gradient             ...        0 min,  0.010 sec ( 20.374%)
 printout                       ...        0 min,  0.000 sec (  0.671%)

         :::::::::::::::::::::::::::::::::::::::::::::::::::::
         ::                     SUMMARY                     ::
         :::::::::::::::::::::::::::::::::::::::::::::::::::::
         :: total energy             -52.073191963903 Eh    ::
         :: gradient norm              0.081366752376 Eh/a0 ::
         :: HOMO-LUMO gap              3.452857989094 eV    ::
         ::.................................................::
         :: SCC energy               -52.692954109040 Eh    ::
         :: -> isotropic ES            0.085360037710 Eh    ::
         :: -> anisotropic ES          0.003886037045 Eh    ::
         :: -> anisotropic XC          0.015374808094 Eh    ::
         :: -> dispersion             -0.030051664290 Eh    ::
         :: repulsion energy           0.619762145137 Eh    ::
         :: add. restraining           0.000000000000 Eh    ::
         :: total charge              -0.000000000000 e     ::
         :::::::::::::::::::::::::::::::::::::::::::::::::::::

      ----------------------------------------------------------- 
     |                   =====================                   |
     |                        A N C O P T                        |
     |                   =====================                   |
     |               Approximate Normal Coordinate               |
     |                Rational Function Optimizer                |
      ----------------------------------------------------------- 
      ----------------------------------------------------------- 
     |                   =====================                   |
     |                        A N C O P T                        |
     |                   =====================                   |
     |               Approximate Normal Coordinate               |
     |                Rational Function Optimizer                |
      ----------------------------------------------------------- 

          ...................................................
          :                      SETUP                      :
          :.................................................:
          :   optimization level            normal          :
          :   max. optcycles                   200          :
          :   ANC micro-cycles                  20          :
          :   degrees of freedom                90          :
          :.................................................:
          :   RF solver                   davidson          :
          :   write xtbopt.log                true          :
          :   linear?                        false          :
          :   energy convergence         0.5000000E-05 Eh   :
          :   grad. convergence          0.1000000E-02 Eh/α :
          :   maxmium RF displ.          1.0000000          :
          :   Hlow (freq-cutoff)         0.1000000E-01      :
          :   Hmax (freq-cutoff)         5.0000000          :
          :   S6 in model hess.         20.0000000          :
          ...................................................

generating ANC from exact Hessian ...
Using Lindh-Hessian (1995)
 Shifting diagonal of input Hessian by    9.3970817974408458E-003
 Lowest  eigenvalues of input Hessian
    0.000000    0.000000    0.000000    0.000000    0.000000    0.000000
    0.010000    0.010215    0.010433    0.011057    0.011705    0.013876
    0.014850    0.016285    0.017158    0.019133    0.019907    0.020877
 Highest eigenvalues
    1.731711    1.853086    1.989096    2.059397    2.147218    2.190189


........................................................................
.............................. CYCLE    1 ..............................
........................................................................

 iter      E             dE          RMSdq      gap      omega  full diag
   1    -52.6932165 -0.526932E+02  0.171E-04    3.45       0.0  T
   2    -52.6932165 -0.206086E-09  0.107E-04    3.45     165.6  T
   3    -52.6932165 -0.125979E-09  0.651E-05    3.45     271.7  T
     SCC iter.                  ...        0 min,  0.004 sec
     gradient                   ...        0 min,  0.010 sec
 * total energy  :   -52.0731920 Eh     change       -0.3135085E-08 Eh
   gradient norm :     0.0813678 Eh/α   predicted     0.0000000E+00 (-100.00%)
   displ. norm   :     0.2922225 α      lambda       -0.1090714E-01
   maximum displ.:     0.1082982 α      in ANC's #12, #20, #22, ...

........................................................................
.............................. CYCLE    2 ..............................
........................................................................

 iter      E             dE          RMSdq      gap      omega  full diag
   1    -52.7346341 -0.527346E+02  0.189E-01    3.47       0.0  T
   2    -52.7347897 -0.155645E-03  0.117E-01    3.48       1.0  T
   3    -52.7347955 -0.572636E-05  0.552E-02    3.49       1.0  T
   4    -52.7348167 -0.212137E-04  0.938E-03    3.49       1.9  T
   5    -52.7348175 -0.833719E-06  0.457E-03    3.49       3.9  T
   6    -52.7348177 -0.232119E-06  0.215E-03    3.49       8.2  T
   7    -52.7348178 -0.294228E-07  0.876E-04    3.49      20.2  T
   8    -52.7348178 -0.219980E-08  0.249E-04    3.49      71.0  T
     SCC iter.                  ...        0 min,  0.008 sec
     gradient                   ...        0 min,  0.010 sec
 * total energy  :   -52.0803846 Eh     change       -0.7192681E-02 Eh
   gradient norm :     0.0245482 Eh/α   predicted    -0.5924029E-02 ( -17.64%)
   displ. norm   :     0.2920228 α      lambda       -0.2441123E-02
   maximum displ.:     0.1506082 α      in ANC's #3, #12, #20, ...

........................................................................
.............................. CYCLE    3 ..............................
........................................................................

 iter      E             dE          RMSdq      gap      omega  full diag
   1    -52.7509635 -0.527510E+02  0.113E-01    3.49       0.0  T
   2    -52.7510447 -0.811716E-04  0.700E-02    3.49       1.0  T
   3    -52.7510502 -0.555358E-05  0.355E-02    3.49       1.0  T
   4    -52.7510519 -0.165012E-05  0.855E-03    3.50       2.1  T
   5    -52.7510535 -0.165968E-05  0.217E-03    3.50       8.2  T
   6    -52.7510536 -0.510742E-07  0.998E-04    3.50      17.7  T
   7    -52.7510536 -0.661672E-08  0.400E-04    3.49      44.2  T
     SCC iter.                  ...        0 min,  0.007 sec
     gradient                   ...        0 min,  0.010 sec
 * total energy  :   -52.0819107 Eh     change       -0.1526025E-02 Eh
   gradient norm :     0.0094294 Eh/α   predicted    -0.1325674E-02 ( -13.13%)
   displ. norm   :     0.2724462 α      lambda       -0.7588509E-03
   maximum displ.:     0.1943222 α      in ANC's #3, #12, #2, ...

........................................................................
.............................. CYCLE    4 ..............................
........................................................................

 iter      E             dE          RMSdq      gap      omega  full diag
   1    -52.7536225 -0.527536E+02  0.767E-02    3.50       0.0  T
   2    -52.7536491 -0.265583E-04  0.453E-02    3.49       1.0  T
   3    -52.7536496 -0.523643E-06  0.208E-02    3.50       1.0  T
   4    -52.7536508 -0.121500E-05  0.587E-03    3.50       3.0  T
   5    -52.7536519 -0.104411E-05  0.118E-03    3.50      15.0  T
   6    -52.7536519 -0.573407E-08  0.522E-04    3.50      33.9  T
   7    -52.7536519 -0.173383E-08  0.207E-04    3.50      85.5  T
     SCC iter.                  ...        0 min,  0.007 sec
     gradient                   ...        0 min,  0.010 sec
 * total energy  :   -52.0825183 Eh     change       -0.6076728E-03 Eh
   gradient norm :     0.0062596 Eh/α   predicted    -0.4075902E-03 ( -32.93%)
   displ. norm   :     0.3790746 α      lambda       -0.7930149E-03
   maximum displ.:     0.2722937 α      in ANC's #3, #2, #10, ...

........................................................................
.............................. CYCLE    5 ..............................
........................................................................

 iter      E             dE          RMSdq      gap      omega  full diag
   1    -52.7526004 -0.527526E+02  0.971E-02    3.51       0.0  T
   2    -52.7526206 -0.202456E-04  0.560E-02    3.50       1.0  T
   3    -52.7526182  0.246514E-05  0.204E-02    3.50       1.0  T
   4    -52.7526224 -0.419834E-05  0.525E-03    3.50       3.4  T
   5    -52.7526233 -0.922032E-06  0.148E-03    3.50      11.9  T
   6    -52.7526233 -0.875925E-08  0.609E-04    3.50      29.0  T
   7    -52.7526233 -0.258376E-08  0.252E-04    3.50      70.3  T
     SCC iter.                  ...        0 min,  0.007 sec
     gradient                   ...        0 min,  0.010 sec
 * total energy  :   -52.0831684 Eh     change       -0.6500935E-03 Eh
   gradient norm :     0.0072589 Eh/α   predicted    -0.4534862E-03 ( -30.24%)
   displ. norm   :     0.4280187 α      lambda       -0.7191566E-03
   maximum displ.:     0.3048353 α      in ANC's #3, #10, #2, ...

........................................................................
.............................. CYCLE    6 ..............................
........................................................................

 iter      E             dE          RMSdq      gap      omega  full diag
   1    -52.7502716 -0.527503E+02  0.104E-01    3.52       0.0  T
   2    -52.7502806 -0.890605E-05  0.606E-02    3.51       1.0  T
   3    -52.7502766  0.397706E-05  0.152E-02    3.51       1.2  T
   4    -52.7502818 -0.524593E-05  0.363E-03    3.51       4.9  T
   5    -52.7502822 -0.387870E-06  0.146E-03    3.51      12.1  T
   6    -52.7502822 -0.962417E-08  0.540E-04    3.51      32.7  T
   7    -52.7502822 -0.217530E-08  0.215E-04    3.51      82.1  T
     SCC iter.                  ...        0 min,  0.007 sec
     gradient                   ...        0 min,  0.010 sec
 * total energy  :   -52.0837760 Eh     change       -0.6076004E-03 Eh
   gradient norm :     0.0102915 Eh/α   predicted    -0.4254542E-03 ( -29.98%)
   displ. norm   :     0.4643915 α      lambda       -0.7127481E-03
   maximum displ.:     0.3286879 α      in ANC's #3, #10, #2, ...

........................................................................
.............................. CYCLE    7 ..............................
........................................................................

 iter      E             dE          RMSdq      gap      omega  full diag
   1    -52.7486283 -0.527486E+02  0.112E-01    3.54       0.0  T
   2    -52.7486334 -0.510376E-05  0.657E-02    3.53       1.0  T
   3    -52.7486282  0.515252E-05  0.156E-02    3.53       1.1  T
   4    -52.7486348 -0.654602E-05  0.305E-03    3.53       5.8  T
   5    -52.7486349 -0.126444E-06  0.139E-03    3.53      12.7  T
   6    -52.7486349 -0.555168E-08  0.505E-04    3.53      35.0  T
   7    -52.7486349 -0.137873E-08  0.183E-04    3.53      96.7  T
     SCC iter.                  ...        0 min,  0.007 sec
     gradient                   ...        0 min,  0.010 sec
 * total energy  :   -52.0843743 Eh     change       -0.5982475E-03 Eh
   gradient norm :     0.0104302 Eh/α   predicted    -0.4332305E-03 ( -27.58%)
   displ. norm   :     0.5056143 α      lambda       -0.7112395E-03
   maximum displ.:     0.3644753 α      in ANC's #3, #10, #2, ...

........................................................................
.............................. CYCLE    8 ..............................
........................................................................

 iter      E             dE          RMSdq      gap      omega  full diag
   1    -52.7483583 -0.527484E+02  0.127E-01    3.56       0.0  T
   2    -52.7483643 -0.600558E-05  0.747E-02    3.55       1.0  T
   3    -52.7483560  0.826203E-05  0.203E-02    3.55       1.0  T
   4    -52.7483664 -0.103623E-04  0.324E-03    3.55       5.4  T
   5    -52.7483664 -0.881411E-07  0.139E-03    3.55      12.7  T
   6    -52.7483665 -0.506849E-08  0.577E-04    3.55      30.6  T
   7    -52.7483665 -0.239582E-08  0.210E-04    3.55      84.2  T
     SCC iter.                  ...        0 min,  0.007 sec
     gradient                   ...        0 min,  0.010 sec
 * total energy  :   -52.0849396 Eh     change       -0.5652642E-03 Eh
   gradient norm :     0.0079776 Eh/α   predicted    -0.4465603E-03 ( -21.00%)
   displ. norm   :     0.4891075 α      lambda       -0.5610147E-03
   maximum displ.:     0.3639182 α      in ANC's #3, #10, #2, ...

........................................................................
.............................. CYCLE    9 ..............................
........................................................................

 iter      E             dE          RMSdq      gap      omega  full diag
   1    -52.7499985 -0.527500E+02  0.129E-01    3.58       0.0  T
   2    -52.7500047 -0.616251E-05  0.757E-02    3.57       1.0  T
   3    -52.7499953  0.934852E-05  0.218E-02    3.57       1.0  T
   4    -52.7500070 -0.116880E-04  0.321E-03    3.57       5.5  T
   5    -52.7500071 -0.841536E-07  0.140E-03    3.57      12.6  T
   6    -52.7500071 -0.625270E-08  0.578E-04    3.57      30.6  T
   7    -52.7500071 -0.176431E-08  0.218E-04    3.57      81.3  T
     SCC iter.                  ...        0 min,  0.007 sec
     gradient                   ...        0 min,  0.010 sec
 * total energy  :   -52.0853604 Eh     change       -0.4208324E-03 Eh
   gradient norm :     0.0054196 Eh/α   predicted    -0.3476164E-03 ( -17.40%)
   displ. norm   :     0.4166602 α      lambda       -0.3443806E-03
   maximum displ.:     0.3139688 α      in ANC's #3, #10, #1, ...

........................................................................
.............................. CYCLE   10 ..............................
........................................................................

 iter      E             dE          RMSdq      gap      omega  full diag
   1    -52.7521017 -0.527521E+02  0.113E-01    3.59       0.0  T
   2    -52.7521075 -0.573975E-05  0.662E-02    3.59       1.0  T
   3    -52.7521004  0.709802E-05  0.184E-02    3.58       1.0  T
   4    -52.7521092 -0.883591E-05  0.307E-03    3.59       5.8  T
   5    -52.7521093 -0.128497E-06  0.125E-03    3.59      14.2  T
   6    -52.7521093 -0.350046E-08  0.478E-04    3.59      37.0  T
   7    -52.7521093 -0.665082E-09  0.198E-04    3.59      89.4  T
     SCC iter.                  ...        0 min,  0.007 sec
     gradient                   ...        0 min,  0.010 sec
 * total energy  :   -52.0856145 Eh     change       -0.2541445E-03 Eh
   gradient norm :     0.0038856 Eh/α   predicted    -0.2020961E-03 ( -20.48%)
   displ. norm   :     0.3582328 α      lambda       -0.2102739E-03
   maximum displ.:     0.2675439 α      in ANC's #3, #1, #10, ...

........................................................................
.............................. CYCLE   11 ..............................
........................................................................

 iter      E             dE          RMSdq      gap      omega  full diag
   1    -52.7541138 -0.527541E+02  0.985E-02    3.60       0.0  T
   2    -52.7541183 -0.446338E-05  0.577E-02    3.60       1.0  T
   3    -52.7541131  0.518120E-05  0.154E-02    3.60       1.1  T
   4    -52.7541195 -0.642379E-05  0.270E-03    3.60       6.6  T
   5    -52.7541196 -0.137487E-06  0.111E-03    3.60      16.0  T
   6    -52.7541196 -0.233680E-08  0.383E-04    3.60      46.2  T
   7    -52.7541196 -0.398977E-09  0.150E-04    3.60     117.5  T
     SCC iter.                  ...        0 min,  0.007 sec
     gradient                   ...        0 min,  0.010 sec
 * total energy  :   -52.0857657 Eh     change       -0.1512134E-03 Eh
   gradient norm :     0.0032027 Eh/α   predicted    -0.1186297E-03 ( -21.55%)
   displ. norm   :     0.2866117 α      lambda       -0.1243889E-03
   maximum displ.:     0.2046627 α      in ANC's #3, #1, #10, ...

........................................................................
.............................. CYCLE   12 ..............................
........................................................................

 iter      E             dE          RMSdq      gap      omega  full diag
   1    -52.7553234 -0.527553E+02  0.792E-02    3.61       0.0  T
   2    -52.7553263 -0.288129E-05  0.464E-02    3.60       1.0  T
   3    -52.7553223  0.398294E-05  0.123E-02    3.60       1.4  T
   4    -52.7553272 -0.487073E-05  0.203E-03    3.60       8.7  T
   5    -52.7553273 -0.711901E-07  0.856E-04    3.60      20.7  T
   6    -52.7553273 -0.120679E-08  0.327E-04    3.60      54.1  T
     SCC iter.                  ...        0 min,  0.006 sec
     gradient                   ...        0 min,  0.010 sec
 * total energy  :   -52.0858500 Eh     change       -0.8421375E-04 Eh
   gradient norm :     0.0031094 Eh/α   predicted    -0.6730534E-04 ( -20.08%)
   displ. norm   :     0.2126911 α      lambda       -0.7959979E-04
   maximum displ.:     0.1350923 α      in ANC's #3, #1, #7, ...

........................................................................
.............................. CYCLE   13 ..............................
........................................................................

 iter      E             dE          RMSdq      gap      omega  full diag
   1    -52.7561321 -0.527561E+02  0.618E-02    3.61       0.0  T
   2    -52.7561344 -0.236900E-05  0.361E-02    3.61       1.0  T
   3    -52.7561327  0.172616E-05  0.943E-03    3.61       1.9  T
   4    -52.7561349 -0.220014E-05  0.189E-03    3.61       9.4  T
   5    -52.7561350 -0.877058E-07  0.718E-04    3.61      24.6  T
   6    -52.7561350 -0.137184E-08  0.268E-04    3.61      66.0  T
     SCC iter.                  ...        0 min,  0.006 sec
     gradient                   ...        0 min,  0.010 sec
 * total energy  :   -52.0859025 Eh     change       -0.5251569E-04 Eh
   gradient norm :     0.0025548 Eh/α   predicted    -0.4160153E-04 ( -20.78%)
   displ. norm   :     0.1765681 α      lambda       -0.7141039E-04
   maximum displ.:     0.0918448 α      in ANC's #1, #3, #7, ...

........................................................................
.............................. CYCLE   14 ..............................
........................................................................

 iter      E             dE          RMSdq      gap      omega  full diag
   1    -52.7566210 -0.527566E+02  0.488E-02    3.61       0.0  T
   2    -52.7566219 -0.895965E-06  0.287E-02    3.61       1.0  T
   3    -52.7566205  0.133678E-05  0.733E-03    3.61       2.4  T
   4    -52.7566222 -0.164573E-05  0.111E-03    3.61      16.0  T
   5    -52.7566222 -0.167960E-07  0.550E-04    3.61      32.1  T
   6    -52.7566222 -0.445390E-09  0.197E-04    3.61      89.7  T
     SCC iter.                  ...        0 min,  0.006 sec
     gradient                   ...        0 min,  0.010 sec
 * total energy  :   -52.0859542 Eh     change       -0.5170726E-04 Eh
   gradient norm :     0.0033177 Eh/α   predicted    -0.3681824E-04 ( -28.79%)
   displ. norm   :     0.2537983 α      lambda       -0.1158350E-03
   maximum displ.:     0.1394088 α      in ANC's #1, #4, #7, ...

........................................................................
.............................. CYCLE   15 ..............................
........................................................................

 iter      E             dE          RMSdq      gap      omega  full diag
   1    -52.7574476 -0.527574E+02  0.601E-02    3.61       0.0  T
   2    -52.7574490 -0.147224E-05  0.354E-02    3.61       1.0  T
   3    -52.7574478  0.126811E-05  0.799E-03    3.61       2.2  T
   4    -52.7574494 -0.161872E-05  0.155E-03    3.61      11.4  T
   5    -52.7574494 -0.405435E-07  0.738E-04    3.61      23.9  T
   6    -52.7574494 -0.103720E-08  0.254E-04    3.61      69.6  T
     SCC iter.                  ...        0 min,  0.006 sec
     gradient                   ...        0 min,  0.010 sec
 * total energy  :   -52.0860337 Eh     change       -0.7947407E-04 Eh
   gradient norm :     0.0039705 Eh/α   predicted    -0.6164924E-04 ( -22.43%)
   displ. norm   :     0.3091101 α      lambda       -0.1356190E-03
   maximum displ.:     0.1701164 α      in ANC's #1, #4, #7, ...

........................................................................
.............................. CYCLE   16 ..............................
........................................................................

 iter      E             dE          RMSdq      gap      omega  full diag
   1    -52.7519702 -0.527520E+02  0.749E-02    3.61       0.0  T
   2    -52.7519741 -0.392204E-05  0.441E-02    3.61       1.0  T
   3    -52.7519705  0.355862E-05  0.132E-02    3.61       1.3  T
   4    -52.7519751 -0.455521E-05  0.227E-03    3.61       7.8  T
   5    -52.7519752 -0.973248E-07  0.104E-03    3.61      17.0  T
   6    -52.7519752 -0.435831E-08  0.507E-04    3.61      34.9  T
   7    -52.7519752 -0.137904E-08  0.113E-04    3.61     156.7  T
     SCC iter.                  ...        0 min,  0.007 sec
     gradient                   ...        0 min,  0.010 sec
 * total energy  :   -52.0860733 Eh     change       -0.3963835E-04 Eh
   gradient norm :     0.0063791 Eh/α   predicted    -0.7429018E-04 (  87.42%)
   displ. norm   :     0.2576140 α      lambda       -0.1541420E-03
   maximum displ.:     0.1719451 α      in ANC's #3, #4, #10, ...

........................................................................
.............................. CYCLE   17 ..............................
........................................................................

 iter      E             dE          RMSdq      gap      omega  full diag
   1    -52.7556313 -0.527556E+02  0.564E-02    3.60       0.0  T
   2    -52.7556370 -0.564128E-05  0.327E-02    3.60       1.0  T
   3    -52.7556360  0.930821E-06  0.106E-02    3.60       1.7  T
   4    -52.7556375 -0.143224E-05  0.254E-03    3.60       7.0  T
   5    -52.7556377 -0.222285E-06  0.858E-04    3.60      20.6  T
   6    -52.7556377 -0.241051E-08  0.328E-04    3.60      53.9  T
     SCC iter.                  ...        0 min,  0.006 sec
     gradient                   ...        0 min,  0.010 sec
 * total energy  :   -52.0861496 Eh     change       -0.7629977E-04 Eh
   gradient norm :     0.0035906 Eh/α   predicted    -0.8218837E-04 (   7.72%)
   displ. norm   :     0.0395839 α      lambda       -0.4723550E-04
   maximum displ.:     0.0145576 α      in ANC's #11, #3, #12, ...

........................................................................
.............................. CYCLE   18 ..............................
........................................................................

 iter      E             dE          RMSdq      gap      omega  full diag
   1    -52.7557244 -0.527557E+02  0.176E-02    3.60       0.0  T
   2    -52.7557248 -0.384477E-06  0.103E-02    3.60       1.7  T
   3    -52.7557248  0.148817E-07  0.231E-03    3.60       7.7  T
   4    -52.7557248 -0.467978E-07  0.580E-04    3.60      30.5  T
   5    -52.7557248 -0.564432E-08  0.269E-04    3.60      65.8  T
     SCC iter.                  ...        0 min,  0.005 sec
     gradient                   ...        0 min,  0.010 sec
 * total energy  :   -52.0861823 Eh     change       -0.3266035E-04 Eh
   gradient norm :     0.0022040 Eh/α   predicted    -0.2365628E-04 ( -27.57%)
   displ. norm   :     0.1271454 α      lambda       -0.5486556E-04
   maximum displ.:     0.0695246 α      in ANC's #11, #1, #4, ...

........................................................................
.............................. CYCLE   19 ..............................
........................................................................

 iter      E             dE          RMSdq      gap      omega  full diag
   1    -52.7550326 -0.527550E+02  0.290E-02    3.60       0.0  T
   2    -52.7550334 -0.779799E-06  0.171E-02    3.60       1.0  T
   3    -52.7550333  0.948518E-07  0.358E-03    3.60       4.9  T
   4    -52.7550335 -0.162912E-06  0.974E-04    3.60      18.1  T
   5    -52.7550335 -0.199196E-07  0.415E-04    3.60      42.6  T
     SCC iter.                  ...        0 min,  0.006 sec
     gradient                   ...        0 min,  0.010 sec
 * total energy  :   -52.0862195 Eh     change       -0.3724607E-04 Eh
   gradient norm :     0.0020047 Eh/α   predicted    -0.2787901E-04 ( -25.15%)
   displ. norm   :     0.1450895 α      lambda       -0.4230673E-04
   maximum displ.:     0.0962884 α      in ANC's #1, #11, #7, ...

........................................................................
.............................. CYCLE   20 ..............................
........................................................................

 iter      E             dE          RMSdq      gap      omega  full diag
   1    -52.7545570 -0.527546E+02  0.323E-02    3.60       0.0  T
   2    -52.7545575 -0.546131E-06  0.190E-02    3.60       1.0  T
   3    -52.7545572  0.281868E-06  0.433E-03    3.60       4.1  T
   4    -52.7545576 -0.378345E-06  0.976E-04    3.60      18.1  T
   5    -52.7545576 -0.128644E-07  0.397E-04    3.60      44.5  T
     SCC iter.                  ...        0 min,  0.005 sec
     gradient                   ...        0 min,  0.010 sec
 * total energy  :   -52.0862514 Eh     change       -0.3189590E-04 Eh
   gradient norm :     0.0030472 Eh/α   predicted    -0.2160156E-04 ( -32.27%)
   displ. norm   :     0.1738990 α      lambda       -0.5080009E-04
   maximum displ.:     0.1207539 α      in ANC's #1, #11, #7, ...
 * RMSD in coord.:     0.7421336 α      energy gain  -0.1305943E-01 Eh

generating ANC from exact Hessian ...
Using Lindh-Hessian (1995)
 Shifting diagonal of input Hessian by    9.2888915384090418E-003
 Lowest  eigenvalues of input Hessian
    0.000000    0.000000    0.000000    0.000000    0.000000    0.000000
    0.010000    0.010232    0.010658    0.011206    0.011910    0.014114
    0.015846    0.017173    0.018189    0.020371    0.021024    0.021368
 Highest eigenvalues
    1.868470    1.916783    2.064064    2.116171    2.315931    2.326426


........................................................................
.............................. CYCLE   21 ..............................
........................................................................

 iter      E             dE          RMSdq      gap      omega  full diag
   1    -52.7544962 -0.527545E+02  0.413E-02    3.60       0.0  T
   2    -52.7544968 -0.642867E-06  0.242E-02    3.60       1.0  T
   3    -52.7544967  0.154928E-06  0.369E-03    3.60       4.8  T
   4    -52.7544969 -0.264825E-06  0.107E-03    3.60      16.5  T
   5    -52.7544970 -0.135592E-07  0.518E-04    3.60      34.2  T
   6    -52.7544970 -0.137158E-08  0.206E-04    3.60      86.0  T
     SCC iter.                  ...        0 min,  0.006 sec
     gradient                   ...        0 min,  0.010 sec
 * total energy  :   -52.0862904 Eh     change       -0.3896644E-04 Eh
   gradient norm :     0.0038508 Eh/α   predicted     0.0000000E+00 (-100.00%)
   displ. norm   :     0.0272595 α      lambda       -0.2712984E-04
   maximum displ.:     0.0116918 α      in ANC's #1, #2, #10, ...

........................................................................
.............................. CYCLE   22 ..............................
........................................................................

 iter      E             dE          RMSdq      gap      omega  full diag
   1    -52.7554328 -0.527554E+02  0.130E-02    3.60       0.0  T
   2    -52.7554332 -0.420263E-06  0.758E-03    3.60       2.3  T
   3    -52.7554332  0.488234E-07  0.280E-03    3.60       6.3  T
   4    -52.7554333 -0.765077E-07  0.774E-04    3.60      22.8  T
   5    -52.7554333 -0.203056E-07  0.214E-04    3.60      82.5  T
     SCC iter.                  ...        0 min,  0.005 sec
     gradient                   ...        0 min,  0.010 sec
 * total energy  :   -52.0863140 Eh     change       -0.2360858E-04 Eh
   gradient norm :     0.0016253 Eh/α   predicted    -0.1622890E-04 ( -31.26%)
   displ. norm   :     0.0734007 α      lambda       -0.2319238E-04
   maximum displ.:     0.0372774 α      in ANC's #1, #2, #10, ...

........................................................................
.............................. CYCLE   23 ..............................
........................................................................

 iter      E             dE          RMSdq      gap      omega  full diag
   1    -52.7562021 -0.527562E+02  0.247E-02    3.60       0.0  T
   2    -52.7562031 -0.927945E-06  0.145E-02    3.60       1.2  T
   3    -52.7562029  0.156786E-06  0.435E-03    3.60       4.1  T
   4    -52.7562031 -0.236756E-06  0.114E-03    3.60      15.5  T
   5    -52.7562032 -0.346370E-07  0.363E-04    3.60      48.7  T
   6    -52.7562032 -0.893657E-09  0.141E-04    3.60     125.4  T
     SCC iter.                  ...        0 min,  0.006 sec
     gradient                   ...        0 min,  0.010 sec
 * total energy  :   -52.0863329 Eh     change       -0.1892374E-04 Eh
   gradient norm :     0.0019710 Eh/α   predicted    -0.1162415E-04 ( -38.57%)
   displ. norm   :     0.0582773 α      lambda       -0.1143380E-04
   maximum displ.:     0.0326598 α      in ANC's #1, #2, #10, ...

........................................................................
.............................. CYCLE   24 ..............................
........................................................................

 iter      E             dE          RMSdq      gap      omega  full diag
   1    -52.7559154 -0.527559E+02  0.162E-02    3.60       0.0  T
   2    -52.7559155 -0.748167E-07  0.953E-03    3.60       1.9  T
   3    -52.7559154  0.888093E-07  0.201E-03    3.60       8.8  T
   4    -52.7559155 -0.112859E-06  0.378E-04    3.60      46.8  T
   5    -52.7559155 -0.157990E-08  0.189E-04    3.60      93.7  T
     SCC iter.                  ...        0 min,  0.005 sec
     gradient                   ...        0 min,  0.010 sec
 * total energy  :   -52.0863484 Eh     change       -0.1552816E-04 Eh
   gradient norm :     0.0017857 Eh/α   predicted    -0.5762903E-05 ( -62.89%)
   displ. norm   :     0.2132363 α      lambda       -0.3807887E-04
   maximum displ.:     0.1177163 α      in ANC's #1, #2, #10, ...

........................................................................
.............................. CYCLE   25 ..............................
........................................................................

 iter      E             dE          RMSdq      gap      omega  full diag
   1    -52.7549029 -0.527549E+02  0.580E-02    3.61       0.0  T
   2    -52.7549039 -0.966373E-06  0.340E-02    3.60       1.0  T
   3    -52.7549027  0.117735E-05  0.682E-03    3.60       2.6  T
   4    -52.7549042 -0.146686E-05  0.136E-03    3.60      13.0  T
   5    -52.7549042 -0.280388E-07  0.669E-04    3.60      26.4  T
   6    -52.7549042 -0.157963E-08  0.286E-04    3.60      61.8  T
     SCC iter.                  ...        0 min,  0.006 sec
     gradient                   ...        0 min,  0.010 sec
 * total energy  :   -52.0863890 Eh     change       -0.4053781E-04 Eh
   gradient norm :     0.0018264 Eh/α   predicted    -0.1943036E-04 ( -52.07%)
   displ. norm   :     0.1813692 α      lambda       -0.1992965E-04
   maximum displ.:     0.1069576 α      in ANC's #1, #2, #10, ...

........................................................................
.............................. CYCLE   26 ..............................
........................................................................

 iter      E             dE          RMSdq      gap      omega  full diag
   1    -52.7545746 -0.527546E+02  0.484E-02    3.61       0.0  T
   2    -52.7545752 -0.579544E-06  0.283E-02    3.61       1.0  T
   3    -52.7545746  0.574640E-06  0.474E-03    3.61       3.7  T
   4    -52.7545753 -0.733669E-06  0.110E-03    3.61      16.1  T
   5    -52.7545754 -0.200814E-07  0.544E-04    3.61      32.5  T
   6    -52.7545754 -0.115565E-08  0.221E-04    3.61      80.1  T
     SCC iter.                  ...        0 min,  0.006 sec
     gradient                   ...        0 min,  0.010 sec
 * total energy  :   -52.0864103 Eh     change       -0.2129941E-04 Eh
   gradient norm :     0.0021466 Eh/α   predicted    -0.1011090E-04 ( -52.53%)
   displ. norm   :     0.0842816 α      lambda       -0.1514862E-04
   maximum displ.:     0.0540425 α      in ANC's #1, #2, #10, ...

........................................................................
.............................. CYCLE   27 ..............................
........................................................................

 iter      E             dE          RMSdq      gap      omega  full diag
   1    -52.7549518 -0.527550E+02  0.217E-02    3.61       0.0  T
   2    -52.7549519 -0.924735E-07  0.127E-02    3.61       1.4  T
   3    -52.7549519  0.394950E-07  0.145E-03    3.61      12.2  T
   4    -52.7549520 -0.635902E-07  0.440E-04    3.61      40.2  T
   5    -52.7549520 -0.262441E-08  0.238E-04    3.61      74.4  T
     SCC iter.                  ...        0 min,  0.005 sec
     gradient                   ...        0 min,  0.010 sec
 * total energy  :   -52.0864233 Eh     change       -0.1301416E-04 Eh
   gradient norm :     0.0015688 Eh/α   predicted    -0.7635668E-05 ( -41.33%)
   displ. norm   :     0.1787207 α      lambda       -0.2198235E-04
   maximum displ.:     0.1192815 α      in ANC's #1, #2, #3, ...

........................................................................
.............................. CYCLE   28 ..............................
........................................................................

 iter      E             dE          RMSdq      gap      omega  full diag
   1    -52.7558865 -0.527559E+02  0.445E-02    3.61       0.0  T
   2    -52.7558869 -0.447576E-06  0.259E-02    3.61       1.0  T
   3    -52.7558868  0.169943E-06  0.326E-03    3.61       5.4  T
   4    -52.7558871 -0.284976E-06  0.923E-04    3.61      19.1  T
   5    -52.7558871 -0.890305E-08  0.495E-04    3.61      35.7  T
     SCC iter.                  ...        0 min,  0.005 sec
     gradient                   ...        0 min,  0.010 sec
 * total energy  :   -52.0864455 Eh     change       -0.2221370E-04 Eh
   gradient norm :     0.0008601 Eh/α   predicted    -0.1114758E-04 ( -49.82%)
   displ. norm   :     0.1170211 α      lambda       -0.8892700E-05
   maximum displ.:     0.0809600 α      in ANC's #1, #2, #3, ...

........................................................................
.............................. CYCLE   29 ..............................
........................................................................

 iter      E             dE          RMSdq      gap      omega  full diag
   1    -52.7557366 -0.527557E+02  0.282E-02    3.61       0.0  T
   2    -52.7557368 -0.160332E-06  0.165E-02    3.61       1.1  T
   3    -52.7557367  0.345673E-07  0.182E-03    3.61       9.7  T
   4    -52.7557368 -0.793767E-07  0.510E-04    3.61      34.7  T
   5    -52.7557368 -0.645848E-09  0.265E-04    3.61      66.8  T
     SCC iter.                  ...        0 min,  0.005 sec
     gradient                   ...        0 min,  0.010 sec
 * total energy  :   -52.0864568 Eh     change       -0.1132054E-04 Eh
   gradient norm :     0.0009260 Eh/α   predicted    -0.4478096E-05 ( -60.44%)
   displ. norm   :     0.0966837 α      lambda       -0.9609230E-05
   maximum displ.:     0.0692113 α      in ANC's #1, #2, #3, ...

........................................................................
.............................. CYCLE   30 ..............................
........................................................................

 iter      E             dE          RMSdq      gap      omega  full diag
   1    -52.7559380 -0.527559E+02  0.219E-02    3.61       0.0  T
   2    -52.7559381 -0.893240E-07  0.129E-02    3.61       1.4  T
   3    -52.7559381  0.163165E-07  0.130E-03    3.61      13.6  T
   4    -52.7559381 -0.410269E-07  0.411E-04    3.61      43.0  T
   5    -52.7559381 -0.729436E-09  0.222E-04    3.61      79.7  T
     SCC iter.                  ...        0 min,  0.005 sec
     gradient                   ...        0 min,  0.010 sec
 * total energy  :   -52.0864693 Eh     change       -0.1250561E-04 Eh
   gradient norm :     0.0008802 Eh/α   predicted    -0.4825102E-05 ( -61.42%)
   displ. norm   :     0.1129760 α      lambda       -0.1071012E-04
   maximum displ.:     0.0813801 α      in ANC's #1, #2, #4, ...

........................................................................
.............................. CYCLE   31 ..............................
........................................................................

 iter      E             dE          RMSdq      gap      omega  full diag
   1    -52.7557318 -0.527557E+02  0.255E-02    3.61       0.0  T
   2    -52.7557319 -0.133858E-06  0.149E-02    3.60       1.2  T
   3    -52.7557318  0.702493E-07  0.190E-03    3.60       9.3  T
   4    -52.7557319 -0.108542E-06  0.511E-04    3.60      34.6  T
   5    -52.7557319 -0.233513E-08  0.278E-04    3.60      63.5  T
     SCC iter.                  ...        0 min,  0.005 sec
     gradient                   ...        0 min,  0.010 sec
 * total energy  :   -52.0864826 Eh     change       -0.1327394E-04 Eh
   gradient norm :     0.0005248 Eh/α   predicted    -0.5386848E-05 ( -59.42%)
   displ. norm   :     0.0986723 α      lambda       -0.7601301E-05
   maximum displ.:     0.0738995 α      in ANC's #1, #4, #7, ...

........................................................................
.............................. CYCLE   32 ..............................
........................................................................

 iter      E             dE          RMSdq      gap      omega  full diag
   1    -52.7556481 -0.527556E+02  0.211E-02    3.61       0.0  T
   2    -52.7556482 -0.816809E-07  0.124E-02    3.60       1.4  T
   3    -52.7556481  0.792784E-07  0.173E-03    3.60      10.2  T
   4    -52.7556482 -0.106244E-06  0.401E-04    3.60      44.1  T
   5    -52.7556482 -0.123893E-08  0.220E-04    3.60      80.2  T
     SCC iter.                  ...        0 min,  0.005 sec
     gradient                   ...        0 min,  0.010 sec
 * total energy  :   -52.0864920 Eh     change       -0.9392145E-05 Eh
   gradient norm :     0.0004404 Eh/α   predicted    -0.3817815E-05 ( -59.35%)
   displ. norm   :     0.0678994 α      lambda       -0.4896712E-05
   maximum displ.:     0.0532643 α      in ANC's #1, #7, #4, ...

........................................................................
.............................. CYCLE   33 ..............................
........................................................................

 iter      E             dE          RMSdq      gap      omega  full diag
   1    -52.7556565 -0.527557E+02  0.140E-02    3.61       0.0  T
   2    -52.7556565 -0.392012E-07  0.828E-03    3.61       2.1  T
   3    -52.7556565  0.493205E-07  0.132E-03    3.60      13.4  T
   4    -52.7556565 -0.620032E-07  0.268E-04    3.60      66.0  T
   5    -52.7556565 -0.737437E-09  0.144E-04    3.60     122.4  T
     SCC iter.                  ...        0 min,  0.005 sec
     gradient                   ...        0 min,  0.010 sec
 * total energy  :   -52.0864986 Eh     change       -0.6573540E-05 Eh
   gradient norm :     0.0004940 Eh/α   predicted    -0.2455171E-05 ( -62.65%)
   displ. norm   :     0.0626771 α      lambda       -0.5218070E-05
   maximum displ.:     0.0502243 α      in ANC's #1, #7, #2, ...

........................................................................
.............................. CYCLE   34 ..............................
........................................................................

 iter      E             dE          RMSdq      gap      omega  full diag
   1    -52.7556620 -0.527557E+02  0.130E-02    3.61       0.0  T
   2    -52.7556620 -0.395245E-07  0.766E-03    3.61       2.3  T
   3    -52.7556620  0.573173E-07  0.143E-03    3.61      12.4  T
   4    -52.7556620 -0.706434E-07  0.273E-04    3.61      64.9  T
   5    -52.7556620 -0.743825E-09  0.135E-04    3.61     130.7  T
     SCC iter.                  ...        0 min,  0.005 sec
     gradient                   ...        0 min,  0.010 sec
 * total energy  :   -52.0865057 Eh     change       -0.7168731E-05 Eh
   gradient norm :     0.0004868 Eh/α   predicted    -0.2617778E-05 ( -63.48%)
   displ. norm   :     0.0782010 α      lambda       -0.6851988E-05
   maximum displ.:     0.0615810 α      in ANC's #1, #7, #5, ...

........................................................................
.............................. CYCLE   35 ..............................
........................................................................

 iter      E             dE          RMSdq      gap      omega  full diag
   1    -52.7556527 -0.527557E+02  0.166E-02    3.61       0.0  T
   2    -52.7556528 -0.939887E-07  0.985E-03    3.61       1.8  T
   3    -52.7556527  0.113030E-06  0.210E-03    3.61       8.4  T
   4    -52.7556528 -0.139843E-06  0.432E-04    3.61      40.9  T
   5    -52.7556528 -0.337476E-08  0.207E-04    3.61      85.3  T
     SCC iter.                  ...        0 min,  0.005 sec
     gradient                   ...        0 min,  0.010 sec
 * total energy  :   -52.0865147 Eh     change       -0.8932684E-05 Eh
   gradient norm :     0.0004827 Eh/α   predicted    -0.3436581E-05 ( -61.53%)
   displ. norm   :     0.0932914 α      lambda       -0.7228723E-05
   maximum displ.:     0.0747421 α      in ANC's #1, #7, #5, ...

........................................................................
.............................. CYCLE   36 ..............................
........................................................................

 iter      E             dE          RMSdq      gap      omega  full diag
   1    -52.7555574 -0.527556E+02  0.210E-02    3.61       0.0  T
   2    -52.7555575 -0.115309E-06  0.124E-02    3.61       1.4  T
   3    -52.7555574  0.142880E-06  0.236E-03    3.61       7.5  T
   4    -52.7555575 -0.182179E-06  0.495E-04    3.61      35.7  T
   5    -52.7555575 -0.238108E-08  0.249E-04    3.61      71.0  T
     SCC iter.                  ...        0 min,  0.005 sec
     gradient                   ...        0 min,  0.010 sec
 * total energy  :   -52.0865235 Eh     change       -0.8851298E-05 Eh
   gradient norm :     0.0004485 Eh/α   predicted    -0.3629153E-05 ( -59.00%)
   displ. norm   :     0.0641926 α      lambda       -0.4118860E-05
   maximum displ.:     0.0536866 α      in ANC's #1, #7, #5, ...

........................................................................
.............................. CYCLE   37 ..............................
........................................................................

 iter      E             dE          RMSdq      gap      omega  full diag
   1    -52.7556186 -0.527556E+02  0.149E-02    3.61       0.0  T
   2    -52.7556187 -0.528094E-07  0.879E-03    3.61       2.0  T
   3    -52.7556186  0.655132E-07  0.151E-03    3.61      11.7  T
   4    -52.7556187 -0.822615E-07  0.346E-04    3.61      51.1  T
   5    -52.7556187 -0.209992E-08  0.177E-04    3.61     100.1  T
     SCC iter.                  ...        0 min,  0.005 sec
     gradient                   ...        0 min,  0.010 sec
 * total energy  :   -52.0865289 Eh     change       -0.5368821E-05 Eh
   gradient norm :     0.0003111 Eh/α   predicted    -0.2065594E-05 ( -61.53%)
   displ. norm   :     0.0446473 α      lambda       -0.3005801E-05
   maximum displ.:     0.0389661 α      in ANC's #1, #4, #7, ...

........................................................................
.............................. CYCLE   38 ..............................
........................................................................

 iter      E             dE          RMSdq      gap      omega  full diag
   1    -52.7556803 -0.527557E+02  0.116E-02    3.61       0.0  T
   2    -52.7556803 -0.193914E-07  0.680E-03    3.61       2.6  T
   3    -52.7556803  0.245618E-07  0.902E-04    3.61      19.6  T
   4    -52.7556803 -0.317772E-07  0.206E-04    3.61      85.9  T
     SCC iter.                  ...        0 min,  0.004 sec
     gradient                   ...        0 min,  0.010 sec
 * total energy  :   -52.0865331 Eh     change       -0.4257532E-05 Eh
   gradient norm :     0.0002933 Eh/α   predicted    -0.1508391E-05 ( -64.57%)
   displ. norm   :     0.0392958 α      lambda       -0.3185227E-05
   maximum displ.:     0.0332156 α      in ANC's #1, #4, #3, ...

   *** GEOMETRY OPTIMIZATION CONVERGED AFTER 38 ITERATIONS ***

------------------------------------------------------------------------
 total energy gain   :        -0.0133412 Eh       -8.3717 kcal/mol
 total RMSD          :         0.8686885 a0        0.4597 Å
 total power (kW/mol):        -0.9217691 (step)  -43.4567 (real)
------------------------------------------------------------------------

 ANCopt (total)                0 d,  0 h,  0 min,  0.806 sec
 optimizer setup                ...        0 min,  0.000 sec (  0.047%)
 model hessian                  ...        0 min,  0.013 sec (  1.653%)
 ANC generation                 ...        0 min,  0.001 sec (  0.179%)
 coordinate transformation      ...        0 min,  0.000 sec (  0.025%)
 single point calculation       ...        0 min,  0.760 sec ( 94.259%)
 optimization log               ...        0 min,  0.004 sec (  0.443%)
 hessian update                 ...        0 min,  0.000 sec (  0.039%)
 rational function              ...        0 min,  0.024 sec (  2.935%)

================
 final structure:
================
32
 xtb: 6.7.1 (edcfbbe)
C            1.26826091243499        0.03719494098908        0.10523520038165
C            2.77462097630045       -0.03056407217327        0.01869597924858
O            3.49806712169574        0.29705351925916        0.93756428167464
N            3.28759480742520       -0.54214129103544       -1.13674241527955
C            2.51667254120477       -0.84707797718527       -2.27929459355080
C            2.47432730140159       -2.14895269132925       -2.77416812742284
C            1.73488419215322       -2.48717562373140       -3.89064482002814
C            1.01287100158431       -1.50240518771698       -4.54138908741730
C            1.04924017621763       -0.19786075819386       -4.07693801843886
C            1.79537248752322        0.12824711739889       -2.95963052857258
F            3.17526620297661       -3.12099857298839       -2.14310396029056
C            4.72752802325408       -0.64781089658146       -1.24990362563217
C            5.28987689345064        0.53725286010355       -2.03675363242597
O            4.56638483908461        1.30619675012092       -2.64083966001983
N            6.63542386874072        0.65516827085700       -2.02152671246112
C            7.50606708784254       -0.21415275033551       -1.26590823365747
C            7.24997711981047        1.79791177552622       -2.66027233248643
H            0.98940082611943        0.05838289666254        1.15562998445738
H            0.80042791626911       -0.81096572367643       -0.38739812102012
H            0.91424049584947        0.95400024508039       -0.36047050936784
H            1.73084939810768       -3.51103930578129       -4.23015637361202
H            0.42950050585935       -1.75534259206322       -5.41306079147751
H            0.50028855842335        0.57356909431820       -4.59444390176963
H            1.85852002534261        1.14803996267958       -2.61744434194110
H            4.99866526091830       -1.58585433563877       -1.74114612562239
H            5.12210839924499       -0.63937547254194       -0.23035387857654
H            7.29847501878938       -1.26282139310390       -1.48068451017982
H            7.40357270747147       -0.04924903167859       -0.18942185189307
H            8.53539297239593       -0.00458218983843       -1.54954499933628
H            6.46539447504327        2.36675279557075       -3.15491773486894
H            7.98305752715640        1.47110499472616       -3.40023733501628
H            7.74237035990809        2.43159464230196       -1.91942922339760

 Bond Distances (Angstroems)
 ---------------------------
C1-C2=1.5104         C1-H18=1.0870        C1-H19=1.0867        C1-H20=1.0875        C2-C1=1.5104         C2-O3=1.2145         
C2-N4=1.3638         O3-C2=1.2145         N4-C2=1.3638         N4-C5=1.4116         N4-C12=1.4482        C5-N4=1.4116         
C5-C6=1.3934         C5-C10=1.3908        C6-C5=1.3934         C6-C7=1.3812         C6-F11=1.3544        C7-C6=1.3812         
C7-C8=1.3837         C7-H21=1.0787        C8-C7=1.3837         C8-C9=1.3852         C8-H22=1.0789        C9-C8=1.3852         
C9-C10=1.3825        C9-H23=1.0790        C10-C5=1.3908        C10-C9=1.3825        C10-H24=1.0775       F11-C6=1.3544        
C12-N4=1.4482        C12-C13=1.5296       C12-H25=1.0931       C12-H26=1.0933       C13-C12=1.5296       C13-O14=1.2164       
C13-N15=1.3508       O14-C13=1.2164       N15-C13=1.3508       N15-C16=1.4438       N15-C17=1.4462       C16-N15=1.4438       
C16-H27=1.0904       C16-H28=1.0939       C16-H29=1.0881       C17-N15=1.4462       C17-H30=1.0880       C17-H31=1.0917       
C17-H32=1.0922       H18-C1=1.0870        H19-C1=1.0867        H20-C1=1.0875        H21-C7=1.0787        H22-C8=1.0789        
H23-C9=1.0790        H24-C10=1.0775       H25-C12=1.0931       H26-C12=1.0933       H27-C16=1.0904       H28-C16=1.0939       
H29-C16=1.0881       H30-C17=1.0880       H31-C17=1.0917       H32-C17=1.0922       
 C  H  Rav=1.0871 sigma=0.0056  Rmin=1.0775  Rmax=1.0939    15
 C  C  Rav=1.4196 sigma=0.0583  Rmin=1.3812  Rmax=1.5296     8
 N  C  Rav=1.4108 sigma=0.0399  Rmin=1.3508  Rmax=1.4482     6
 O  C  Rav=1.2155 sigma=0.0009  Rmin=1.2145  Rmax=1.2164     2
 F  C  Rav=1.3544 sigma=0.0000  Rmin=1.3544  Rmax=1.3544     1

 selected bond angles (degree)
 --------------------
H18-C1-C2=108.19               H19-C1-C2=111.62               H19-C1-H18=110.05              H20-C1-C2=109.75               
H20-C1-H18=108.29              H20-C1-H19=108.89              O3-C2-C1=122.59                N4-C2-C1=116.14                
N4-C2-O3=121.21                C5-N4-C2=124.15                C12-N4-C2=117.88               C12-N4-C5=117.64               
C6-C5-N4=120.39                C10-C5-N4=121.85               C10-C5-C6=117.76               C7-C6-C5=122.15                
F11-C6-C5=119.30               F11-C6-C7=118.55               C8-C7-C6=119.03                H21-C7-C6=119.27               
H21-C7-C8=121.71               C9-C8-C7=119.92                H22-C8-C7=119.69               H22-C8-C9=120.39               
C10-C9-C8=120.48               H23-C9-C8=119.94               H23-C9-C10=119.57              C9-C10-C5=120.65               
H24-C10-C5=118.55              H24-C10-C9=120.76              

 selected dihedral angles (degree)
 ---------------------------------
O3-C2-C1-H18=339.89           O3-C2-C1-H19=218.67           O3-C2-C1-H20= 97.86           N4-C2-C1-H18=156.99           
N4-C2-C1-H19= 35.77           N4-C2-C1-H20=274.96           C5-N4-C2-C1=  7.91            C5-N4-C2-O3=185.05            
C12-N4-C2-C1=181.14           C12-N4-C2-O3=358.28           C6-C5-N4-C2=240.09            C6-C5-N4-C12= 66.85           
C10-C5-N4-C2= 61.09           C10-C5-N4-C12=247.85          C7-C6-C5-N4=180.15            C7-C6-C5-C10=359.19           
F11-C6-C5-N4=  0.35           F11-C6-C5-C10=179.39          C8-C7-C6-C5=  0.07            C8-C7-C6-F11=179.87           
H21-C7-C6-C5=180.35           H21-C7-C6-F11=  0.16          C9-C8-C7-C6=  0.58            C9-C8-C7-H21=180.28           
H22-C8-C7-C6=180.16           H22-C8-C7-H21=359.87          C10-C9-C8-C7=359.53           C10-C9-C8-H22=179.95          
H23-C9-C8-C7=178.92           H23-C9-C8-H22=359.34          C9-C10-C5-N4=179.95           C9-C10-C5-C6=  0.92           
H24-C10-C5-N4=  2.05          H24-C10-C5-C6=183.02          C5-C10-C9-C8=359.70           C5-C10-C9-H23=180.31          
H24-C10-C9-C8=177.55          H24-C10-C9-H23=358.16         
           -------------------------------------------------
          |                Final Singlepoint                |
           -------------------------------------------------

          ...................................................
          :                      SETUP                      :
          :.................................................:
          :  # basis functions                  83          :
          :  # atomic orbitals                  83          :
          :  # shells                           49          :
          :  # electrons                        92          :
          :  max. iterations                   250          :
          :  Hamiltonian                  GFN2-xTB          :
          :  restarted?                      false          :
          :  GBSA solvation                  false          :
          :  PC potential                    false          :
          :  electronic temp.          300.0000000     K    :
          :  accuracy                    1.0000000          :
          :  -> integral cutoff          0.2500000E+02      :
          :  -> integral neglect         0.1000000E-07      :
          :  -> SCF convergence          0.1000000E-05 Eh   :
          :  -> wf. convergence          0.1000000E-03 e    :
          :  Broyden damping             0.4000000          :
          :  net charge                          0          :
          :  unpaired electrons                  0          :
          ...................................................

 iter      E             dE          RMSdq      gap      omega  full diag
   1    -52.7556803 -0.527557E+02  0.111E-04    3.61       0.0  T
   2    -52.7556803 -0.517772E-10  0.689E-05    3.61     256.7  T
   3    -52.7556803 -0.121005E-10  0.441E-05    3.61     401.0  T

   *** convergence criteria satisfied after 3 iterations ***

         #    Occupation            Energy/Eh            Energy/eV
      -------------------------------------------------------------
         1        2.0000           -0.8236457             -22.4125
       ...           ...                  ...                  ...
        40        2.0000           -0.4442127             -12.0876
        41        2.0000           -0.4307326             -11.7208
        42        2.0000           -0.4191889             -11.4067
        43        2.0000           -0.4081359             -11.1059
        44        2.0000           -0.3935663             -10.7095
        45        2.0000           -0.3910382             -10.6407
        46        2.0000           -0.3800924             -10.3428 (HOMO)
        47                         -0.2473047              -6.7295 (LUMO)
        48                         -0.2405969              -6.5470
        49                         -0.2066421              -5.6230
        50                         -0.2012678              -5.4768
        51                         -0.1133297              -3.0839
       ...                                ...                  ...
        83                          0.6569659              17.8770
      -------------------------------------------------------------
                  HL-Gap            0.1327877 Eh            3.6133 eV
             Fermi-level           -0.3136986 Eh           -8.5362 eV

 SCC (total)                   0 d,  0 h,  0 min,  0.018 sec
 SCC setup                      ...        0 min,  0.000 sec (  0.546%)
 Dispersion                     ...        0 min,  0.000 sec (  0.725%)
 classical contributions        ...        0 min,  0.000 sec (  0.332%)
 integral evaluation            ...        0 min,  0.004 sec ( 21.187%)
 iterations                     ...        0 min,  0.004 sec ( 20.553%)
 molecular gradient             ...        0 min,  0.010 sec ( 56.081%)
 printout                       ...        0 min,  0.000 sec (  0.522%)

         :::::::::::::::::::::::::::::::::::::::::::::::::::::
         ::                     SUMMARY                     ::
         :::::::::::::::::::::::::::::::::::::::::::::::::::::
         :: total energy             -52.086533130193 Eh    ::
         :: gradient norm              0.000292631435 Eh/a0 ::
         :: HOMO-LUMO gap              3.613338459195 eV    ::
         ::.................................................::
         :: SCC energy               -52.755333891675 Eh    ::
         :: -> isotropic ES            0.087586529221 Eh    ::
         :: -> anisotropic ES          0.001803802025 Eh    ::
         :: -> anisotropic XC          0.014025137835 Eh    ::
         :: -> dispersion             -0.031006775954 Eh    ::
         :: repulsion energy           0.668800761482 Eh    ::
         :: add. restraining           0.000000000000 Eh    ::
         :: total charge               0.000000000000 e     ::
         :::::::::::::::::::::::::::::::::::::::::::::::::::::

           -------------------------------------------------
          |                Property Printout                |
           -------------------------------------------------

    * Orbital Energies and Occupations

         #    Occupation            Energy/Eh            Energy/eV
      -------------------------------------------------------------
         1        2.0000           -0.8236457             -22.4125
       ...           ...                  ...                  ...
        34        2.0000           -0.4843302             -13.1793
        35        2.0000           -0.4776775             -12.9983
        36        2.0000           -0.4736899             -12.8898
        37        2.0000           -0.4701922             -12.7946
        38        2.0000           -0.4681269             -12.7384
        39        2.0000           -0.4565473             -12.4233
        40        2.0000           -0.4442127             -12.0876
        41        2.0000           -0.4307326             -11.7208
        42        2.0000           -0.4191889             -11.4067
        43        2.0000           -0.4081359             -11.1059
        44        2.0000           -0.3935663             -10.7095
        45        2.0000           -0.3910382             -10.6407
        46        2.0000           -0.3800924             -10.3428 (HOMO)
        47                         -0.2473047              -6.7295 (LUMO)
        48                         -0.2405969              -6.5470
        49                         -0.2066421              -5.6230
        50                         -0.2012678              -5.4768
        51                         -0.1133297              -3.0839
        52                         -0.0201668              -0.5488
        53                          0.0069963               0.1904
        54                          0.0422581               1.1499
        55                          0.0702962               1.9129
        56                          0.0863099               2.3486
        57                          0.1141871               3.1072
       ...                                ...                  ...
        83                          0.6569659              17.8770
      -------------------------------------------------------------
                  HL-Gap            0.1327877 Eh            3.6133 eV
             Fermi-level           -0.3136986 Eh           -8.5362 eV

     #   Z          covCN         q      C6AA      α(0)
     1   6 C        3.755    -0.137    23.196     6.867
     2   6 C        2.764     0.276    22.338     7.740
     3   8 O        0.859    -0.438    22.452     6.353
     4   7 N        2.742    -0.077    22.742     7.083
     5   6 C        2.913     0.057    26.725     8.477
     6   6 C        2.789     0.154    24.658     8.134
     7   6 C        2.917    -0.049    29.224     8.865
     8   6 C        2.923    -0.032    28.789     8.799
     9   6 C        2.918    -0.032    28.793     8.799
    10   6 C        2.926    -0.032    28.807     8.802
    11   9 F        0.786    -0.229    11.541     4.013
    12   6 C        3.758    -0.022    21.018     6.536
    13   6 C        2.764     0.261    22.610     7.787
    14   8 O        0.858    -0.446    22.626     6.377
    15   7 N        2.731    -0.090    22.991     7.121
    16   6 C        3.695    -0.056    21.756     6.673
    17   6 C        3.702    -0.050    21.639     6.651
    18   1 H        0.925     0.072     2.068     2.249
    19   1 H        0.925     0.048     2.341     2.393
    20   1 H        0.925     0.066     2.134     2.284
    21   1 H        0.926     0.061     2.182     2.310
    22   1 H        0.926     0.050     2.325     2.385
    23   1 H        0.926     0.052     2.297     2.370
    24   1 H        0.926     0.073     2.055     2.242
    25   1 H        0.924     0.064     2.156     2.296
    26   1 H        0.924     0.090     1.877     2.143
    27   1 H        0.924     0.055     2.255     2.348
    28   1 H        0.924     0.057     2.233     2.337
    29   1 H        0.925     0.067     2.118     2.276
    30   1 H        0.925     0.089     1.892     2.151
    31   1 H        0.924     0.049     2.333     2.389
    32   1 H        0.924     0.052     2.299     2.371

 Mol. C6AA /au·bohr⁶  :      10831.476246
 Mol. C8AA /au·bohr⁸  :     248861.383665
 Mol. α(0) /au        :        159.621526


Wiberg/Mayer (AO) data.
largest (>0.10) Wiberg bond orders for each atom

 ---------------------------------------------------------------------------
     #   Z sym  total        # sym  WBO       # sym  WBO       # sym  WBO
 ---------------------------------------------------------------------------
     1   6 C    3.994 --     2 C    0.987    18 H    0.980    19 H    0.977
                            20 H    0.962
     2   6 C    3.948 --     3 O    1.688     4 N    1.205     1 C    0.987
     3   8 O    2.002 --     2 C    1.688     4 N    0.179
     4   7 N    3.501 --     2 C    1.205     5 C    1.022    12 C    0.983
                             3 O    0.179
     5   6 C    3.972 --    10 C    1.390     6 C    1.352     4 N    1.022
                             8 C    0.105
     6   6 C    3.884 --     7 C    1.406     5 C    1.352    11 F    0.952
     7   6 C    3.988 --     8 C    1.436     6 C    1.406    21 H    0.966
                            10 C    0.109
     8   6 C    3.986 --     7 C    1.436     9 C    1.434    22 H    0.970
                             5 C    0.105
     9   6 C    3.990 --    10 C    1.448     8 C    1.434    23 H    0.969
    10   6 C    3.987 --     9 C    1.448     5 C    1.390    24 H    0.964
                             7 C    0.109
    11   9 F    1.084 --     6 C    0.952
    12   6 C    3.972 --     4 N    0.983    25 H    0.951    13 C    0.950
                            26 H    0.947
    13   6 C    3.956 --    14 O    1.666    15 N    1.255    12 C    0.950
    14   8 O    1.997 --    13 C    1.666    15 N    0.198
    15   7 N    3.496 --    13 C    1.255    16 C    1.004    17 C    0.995
                            14 O    0.198
    16   6 C    3.972 --    15 N    1.004    29 H    0.981    27 H    0.977
                            28 H    0.972
    17   6 C    3.963 --    15 N    0.995    31 H    0.978    32 H    0.977
                            30 H    0.973
    18   1 H    0.995 --     1 C    0.980
    19   1 H    0.998 --     1 C    0.977
    20   1 H    0.996 --     1 C    0.962
    21   1 H    0.996 --     7 C    0.966
    22   1 H    0.997 --     8 C    0.970
    23   1 H    0.997 --     9 C    0.969
    24   1 H    0.995 --    10 C    0.964
    25   1 H    0.996 --    12 C    0.951
    26   1 H    0.991 --    12 C    0.947
    27   1 H    0.997 --    16 C    0.977
    28   1 H    0.997 --    16 C    0.972
    29   1 H    0.995 --    16 C    0.981
    30   1 H    0.992 --    17 C    0.973
    31   1 H    0.997 --    17 C    0.978
    32   1 H    0.997 --    17 C    0.977
 ---------------------------------------------------------------------------

Topologies differ in total number of bonds
Writing topology from bond orders to xtbtopo.mol

molecular dipole:
                 x           y           z       tot (Debye)
 q only:        0.475      -0.273      -1.067
   full:        0.488      -0.447      -1.100       3.264
molecular quadrupole (traceless):
                xx          xy          yy          xz          yz          zz
 q only:       25.830      -1.101     -17.573     -10.182       1.975      -8.257
  q+dip:       25.606      -3.070     -16.289      -9.702       5.403      -9.317
   full:       26.634      -2.760     -17.087     -11.268       4.384      -9.547

           -------------------------------------------------
          |                Geometry Summary                 |
           -------------------------------------------------

      molecular mass/u    :      238.2585615
   center of mass at/Å    :        3.6297977      -0.4182224      -1.9902085
  moments of inertia/u·Å² :        0.7663077E+03   0.1504403E+04   0.1699408E+04
rotational constants/cm⁻¹ :        0.2199852E-01   0.1120553E-01   0.9919711E-02

 * 29 selected distances

     #   Z          #   Z                                           value/Å
     2   6 C        3   8 O                                       1.2145068
     2   6 C        4   7 N                                       1.3637784
     4   7 N        5   6 C                                       1.4116421
     5   6 C        6   6 C                                       1.3934027
     6   6 C        7   6 C                                       1.3811920
     7   6 C        8   6 C                                       1.3836706
     8   6 C        9   6 C                                       1.3852343
     5   6 C       10   6 C                                       1.3908236
     9   6 C       10   6 C                                       1.3825470
     4   7 N       12   6 C                                       1.4482333 (max)
    13   6 C       14   8 O                                       1.2164028
    13   6 C       15   7 N                                       1.3507897
    15   7 N       16   6 C                                       1.4438484
    15   7 N       17   6 C                                       1.4462139
     1   6 C       18   1 H                                       1.0869873
     1   6 C       19   1 H                                       1.0867070
     1   6 C       20   1 H                                       1.0875406
     7   6 C       21   1 H                                       1.0786943
     8   6 C       22   1 H                                       1.0789394
     9   6 C       23   1 H                                       1.0790109
    10   6 C       24   1 H                                       1.0775234 (min)
    12   6 C       25   1 H                                       1.0930509
    12   6 C       26   1 H                                       1.0932734
    16   6 C       27   1 H                                       1.0903804
    16   6 C       28   1 H                                       1.0938562
    16   6 C       29   1 H                                       1.0880632
    17   6 C       30   1 H                                       1.0880369
    17   6 C       31   1 H                                       1.0916767
    17   6 C       32   1 H                                       1.0921785

 * 4 distinct bonds (by element types)

   Z      Z             #   av. dist./Å        max./Å        min./Å
   1 H    6 C          15     1.0870613     1.0938562     1.0775234
   6 C    6 C           6     1.3861450     1.3934027     1.3811920
   6 C    7 N           6     1.4107510     1.4482333     1.3507897
   6 C    8 O           2     1.2154548     1.2164028     1.2145068


optimized geometry written to: xtbopt.xyz


           -------------------------------------------------
          | TOTAL ENERGY              -52.086533130193 Eh   |
          | GRADIENT NORM               0.000292631435 Eh/α |
          | HOMO-LUMO GAP               3.613338459195 eV   |
           -------------------------------------------------

------------------------------------------------------------------------
 * finished run on 2026/01/25 at 20:06:33.660     
------------------------------------------------------------------------
 total:
 * wall-time:     0 d,  0 h,  0 min,  5.537 sec
 *  cpu-time:     0 d,  0 h,  0 min,  0.835 sec
 * ratio c/w:     0.151 speedup
 SCF:
 * wall-time:     0 d,  0 h,  0 min,  0.051 sec
 *  cpu-time:     0 d,  0 h,  0 min,  0.026 sec
 * ratio c/w:     0.512 speedup
 ANC optimizer:
 * wall-time:     0 d,  0 h,  0 min,  2.356 sec
 *  cpu-time:     0 d,  0 h,  0 min,  0.799 sec
Note: The following floating-point exceptions are signalling: IEEE_UNDERFLOW_FLAG IEEE_DENORMAL
normal termination of xtb
 * ratio c/w:     0.339 speedup

