32
 energy: -52.088066680579 gnorm: 0.000903793925 xtb: 6.7.1 (edcfbbe)
C            1.86005680685805       -0.05448279992253       -0.20206291396498
C            3.24839714293413        0.50919993443286       -0.03720591297041
O            4.20064214378252       -0.17195518661778        0.29292363022384
N            3.40361023942313        1.83746349798956       -0.29885209040408
C            2.35239611384836        2.70982716487057       -0.65318115411931
C            1.31994923523898        2.99371801051477        0.23854076606415
C            0.29263042140275        3.85823471431345       -0.08599048628322
C            0.29684850655136        4.47499296306853       -1.32505146602204
C            1.32560471262392        4.22567973577525       -2.21844366794132
C            2.34589243207899        3.35252817265498       -1.88755623689876
F            1.32136735340558        2.42231460837788        1.46412556256034
C            4.76422826574263        2.35708104115172       -0.31740157171804
C            5.50765893048853        1.83576540344434       -1.55598077749659
O            5.07344086660875        2.09517568812119       -2.66860193404133
N            6.62869051755709        1.12220982447355       -1.36899830908146
C            7.15398608250148        0.72628088449971       -0.07843079630563
C            7.32563220949113        0.60673366846747       -2.52754203040443
H            1.94209909846864       -1.13168861493447       -0.32115940928966
H            1.35955202385650        0.37824905424830       -1.06508367744568
H            1.27094124983216        0.14516745410343        0.69052343722113
H           -0.48569008908184        4.04527291862004        0.63687484381506
H           -0.50038323831831        5.15362003401787       -1.58604177402180
H            1.33275862992296        4.71042494178643       -3.18235511186870
H            3.15267376027478        3.14460456611498       -2.57573796505811
H            5.25172344885001        2.07162129743007        0.61401154099911
H            4.71204962059560        3.44535971637735       -0.38930346882160
H            6.39863117161083        0.17604798597847        0.48539135476810
H            7.49236149216902        1.59299788898927        0.49510893506126
H            8.00672763701763        0.07186748367176       -0.24225297776272
H            6.81662147834274        0.96601891557650       -3.41996775022097
H            7.31371316028255       -0.48517839394705       -2.52103633137812
H            8.35943857563261        0.95786742634565       -2.53157225719149
