33
 energy: -49.006442220181 gnorm: 0.055613218082 xtb: 6.7.1 (edcfbbe)
C            5.09180000000000        2.90390000000000        0.46290000000000
N            4.63920000000000        1.54490000000000        0.22220000000000
C            3.75620000000000        0.91930000000000        1.19180000000000
C            5.13860000000000        0.89700000000000       -0.91270000000000
O            5.88250000000000        1.49470000000000       -1.69150000000000
C            4.68290000000000       -0.56110000000000       -1.11950000000000
N            5.25370000000000       -1.25810000000000       -2.29920000000000
C            4.82420000000000       -0.64100000000000       -3.55190000000000
C            6.72080000000000       -1.39700000000000       -2.24580000000000
C            7.17490000000000       -2.21540000000000       -1.05960000000000
C            6.80170000000000       -3.56340000000000       -0.93920000000000
C            7.13350000000000       -4.29120000000000        0.20570000000000
C            7.84770000000000       -3.68420000000000        1.23830000000000
C            8.24460000000000       -2.35370000000000        1.11880000000000
C            7.91100000000000       -1.63270000000000       -0.02440000000000
F            8.28220000000000       -0.34730000000000       -0.10110000000000
H            4.63250000000000        3.32600000000000        1.35910000000000
H            4.82890000000000        3.52100000000000       -0.40160000000000
H            6.18030000000000        2.90210000000000        0.57520000000000
H            3.45770000000000        1.62790000000000        1.96770000000000
H            4.26950000000000        0.07200000000000        1.65500000000000
H            2.85940000000000        0.56080000000000        0.67880000000000
H            3.59060000000000       -0.56830000000000       -1.21300000000000
H            4.91540000000000       -1.13270000000000       -0.21500000000000
H            3.73110000000000       -0.57230000000000       -3.59080000000000
H            5.12480000000000       -1.26080000000000       -4.40390000000000
H            5.23510000000000        0.36010000000000       -3.71150000000000
H            7.23370000000000       -0.43000000000000       -2.27110000000000
H            7.06430000000000       -1.93050000000000       -3.14280000000000
H            6.22060000000000       -4.03540000000000       -1.72950000000000
H            6.81870000000000       -5.32840000000000        0.29600000000000
H            8.08980000000000       -4.24630000000000        2.13600000000000
H            8.79970000000000       -1.86640000000000        1.91420000000000
33
 energy: -49.012092598055 gnorm: 0.020008666269 xtb: 6.7.1 (edcfbbe)
C            5.09962825267897        2.88972872137146        0.44375257827598
N            4.64568189709910        1.53055836598268        0.20795487251596
C            3.76757341740415        0.89558897826878        1.16804202939375
C            5.13861697960220        0.90247419840205       -0.90954415656642
O            5.87077975037622        1.50176494147619       -1.67412222142002
C            4.69737937309924       -0.54964751171543       -1.12090891301296
N            5.25577580500716       -1.23964937873864       -2.28694765906255
C            4.82884240611489       -0.63955422151521       -3.54093297142714
C            6.71418532287666       -1.38754508657310       -2.23940803632131
C            7.14033826919621       -2.20054132827799       -1.04238533091088
C            6.78070376526549       -3.54062945160487       -0.92217373662095
C            7.12756401491576       -4.27460702946736        0.20243212526036
C            7.84619050779330       -3.68063861860575        1.22867878258632
C            8.23808094420249       -2.35788509764717        1.11813537489262
C            7.88436120338925       -1.63568246491417       -0.01061539095957
F            8.27489661679757       -0.35167869680934       -0.09043723626436
H            4.63341260271288        3.29456469779293        1.33934292806628
H            4.84268847936856        3.52029609649195       -0.41035958771971
H            6.18545881024545        2.90718741338387        0.56274984800245
H            3.48230820213341        1.61655800779156        1.93174475290753
H            4.26227753149233        0.05229232993221        1.65769611019713
H            2.85714393189539        0.53715845303413        0.68126715627806
H            3.60726274236932       -0.56744950921160       -1.22807361956668
H            4.94797304331633       -1.13351380276278       -0.22943434614449
H            3.73833196620756       -0.57905799025161       -3.55877714093269
H            5.14061474950383       -1.27935524928394       -4.37074261842828
H            5.24024565214580        0.36232344034524       -3.70067031788346
H            7.22309456169938       -0.41508570925702       -2.24495208213255
H            7.01854943220471       -1.92590013260108       -3.14743886166094
H            6.21816237800143       -4.00729089396905       -1.71867816850912
H            6.82805996865874       -5.31114344770346        0.28298814199588
H            8.09803043610468       -4.24460296189856        2.11605544967036
H            8.80338698612154       -1.87553706146494        1.90336224550142
33
 energy: -49.012978951990 gnorm: 0.007217616299 xtb: 6.7.1 (edcfbbe)
C            5.10372482609098        2.87619607934606        0.43187567071534
N            4.65391223670784        1.51710969745369        0.19661869771937
C            3.78087475045198        0.87969874294961        1.15238022515585
C            5.14228826612895        0.90426072108126       -0.91360004394784
O            5.86860432207524        1.50361475944879       -1.68096658488070
C            4.70255802067556       -0.54533037694070       -1.11958234752787
N            5.25595090884935       -1.22580769953949       -2.27752309573631
C            4.82756768231690       -0.63893125028519       -3.53376967770651
C            6.71041447306975       -1.37371403371570       -2.22940244163113
C            7.12699270396795       -2.18653864984465       -1.03353030347372
C            6.76717303856364       -3.52291934306482       -0.91484996694105
C            7.11736199915735       -4.26354223609568        0.19989136695962
C            7.84310857403751       -3.67989121796487        1.22452487256884
C            8.23069936246682       -2.35727165164078        1.12402997902875
C            7.87017838449475       -1.63298302483752        0.00194543885143
F            8.26338602809004       -0.34494201990657       -0.07040745312068
H            4.63348594293105        3.27358302517493        1.32710432681118
H            4.84880869993420        3.50671681947898       -0.42188702562360
H            6.18897859445368        2.89906615786739        0.55038691630519
H            3.49742452636426        1.60360545023741        1.91307505321148
H            4.26992432981056        0.03715366351690        1.64952671947631
H            2.86790463100231        0.51681792297423        0.67406684970461
H            3.61272974977168       -0.56889883386221       -1.22461816784184
H            4.96869263314240       -1.13055743879784       -0.23338218736783
H            3.73895605554626       -0.58434397661481       -3.54263576909084
H            5.14665253363583       -1.28939300007568       -4.34937107827408
H            5.23690714191389        0.36333503022804       -3.69923290050509
H            7.21955398379731       -0.40067019135336       -2.22519059435803
H            6.99896553978571       -1.91240755687074       -3.13928067464612
H            6.19767852244393       -3.97726861402512       -1.70995191587732
H            6.82644978567190       -5.30079397036395        0.27093262096678
H            8.11251333572767       -4.25222677259839        2.09935204926299
H            8.80717841692279       -1.87922621135926        1.90107144181292
33
 energy: -49.013142076135 gnorm: 0.002690602179 xtb: 6.7.1 (edcfbbe)
C            5.10608657556191        2.87196354434208        0.42840788595032
N            4.65835000452799        1.51235397949316        0.19342542354907
C            3.78996067239724        0.87148144491154        1.14849402673882
C            5.14082007665757        0.90570017005471       -0.91916722068203
O            5.86428886586636        1.50482534785152       -1.69180038326528
C            4.70407222982155       -0.54565733102628       -1.12117922269892
N            5.25706867697258       -1.22317256310438       -2.27687042238762
C            4.82502252179945       -0.64249516077155       -3.53427850451844
C            6.71127866654976       -1.36467248158935       -2.22455073832092
C            7.12205358214030       -2.17627940475531       -1.02751596020629
C            6.75706760220220       -3.51191501237830       -0.91108978981369
C            7.11202433279144       -4.25938847293909        0.19740419256237
C            7.84604179545982       -3.68296005368048        1.22090582019507
C            8.22966633236272       -2.35783666395891        1.12871510931493
C            7.86356620865738       -1.62834191160556        0.01190679204535
F            8.25225373538939       -0.33627227334911       -0.05102447072312
H            4.63623741903261        3.26968752236152        1.32312691816763
H            4.85082184344739        3.49923231353055       -0.42760021123938
H            6.19164212888830        2.89445169790853        0.54425598489211
H            3.50439574230718        1.59277279339255        1.91074542943234
H            4.28193735479646        0.02906483507567        1.64324650108225
H            2.87813757155513        0.50452960961558        0.67070745203242
H            3.61370667389074       -0.57221029492305       -1.21878991302046
H            4.97757602879911       -1.12618511172007       -0.23403054137718
H            3.73668716643708       -0.59104949821734       -3.53992409343117
H            5.14563339087091       -1.29553150989955       -4.34583062456560
H            5.23072991554781        0.36065205067338       -3.70427507650349
H            7.21809946241742       -0.39054999217151       -2.21655074433805
H            7.00312411148867       -1.90163594295745       -3.13241769509317
H            6.18162275412029       -3.95864904344579       -1.70673219705788
H            6.81916173210576       -5.29601559971160        0.26443161655111
H            8.12116547605125       -4.26083609266480        2.09010390502742
H            8.80729934908623       -1.88156089434137        1.90535075170157
33
 energy: -49.013257187405 gnorm: 0.003252032760 xtb: 6.7.1 (edcfbbe)
C            5.10934087252203        2.86950384858593        0.42540232199469
N            4.66346438571599        1.50892483215663        0.19130844146790
C            3.80336699344181        0.86173164688342        1.14803234229865
C            5.13590673891156        0.90795490936014       -0.92731097033541
O            5.85139617812086        1.50837451070357       -1.70857333993410
C            4.70360200163578       -0.54660268758563       -1.12545236474720
N            5.25889514708975       -1.22265250862230       -2.27866814258500
C            4.82153699063143       -0.65078771360239       -3.53840242386266
C            6.71395749231191       -1.35203798365200       -2.21808359093779
C            7.11956492861295       -2.16335598579159       -1.02003462674911
C            6.74683904710237       -3.49832826893370       -0.90791297220829
C            7.10408521246825       -4.25410602850975        0.19408988842920
C            7.84755301945229       -3.68719226102784        1.21687975728143
C            8.22843226029102       -2.35983153583848        1.13536351915120
C            7.85785162450934       -1.62235033571597        0.02503726053697
F            8.23766486900256       -0.32481394969135       -0.02318997001414
H            4.64043400615320        3.26887833476256        1.31945319113095
H            4.85325406801790        3.49277840734415       -0.43345842584928
H            6.19535607141609        2.89102923199324        0.53864899220689
H            3.51466138942396        1.57852075365101        1.91329432163161
H            4.30322847604516        0.02053599989951        1.63775862549631
H            2.89315474577173        0.48822778606231        0.67133316899977
H            3.61250147972669       -0.57884868828832       -1.21399809340843
H            4.98506542279074       -1.12012622163623       -0.23605301285210
H            3.73298281751848       -0.60460876405771       -3.54142219950638
H            5.14364940978146       -1.30631861023416       -4.34659687134864
H            5.22084676084695        0.35390868850815       -3.71499557575386
H            7.21421489410878       -0.37469097620896       -2.20472783708530
H            7.01780058797676       -1.88483100962740       -3.12331932007262
H            6.16189984666883       -3.93441524777668       -1.70349898700172
H            6.80671358522135       -5.28989500919152        0.25583721833803
H            8.13177307634782       -4.27413402621748        2.07733930106142
H            8.80660560036421       -1.88694113770128        1.91352037422718
33
 energy: -49.013318896710 gnorm: 0.003665327439 xtb: 6.7.1 (edcfbbe)
C            5.11174144959698        2.86895172323964        0.42385838713821
N            4.66568384906659        1.50818237957694        0.19007763733606
C            3.81465600278091        0.85572579449499        1.15141859542183
C            5.12809775220783        0.91052313170338       -0.93492577091773
O            5.83526597994137        1.51318689049224       -1.72240053709610
C            4.70052353366122       -0.54677623318065       -1.12978723895429
N            5.26034272772618       -1.22339313319463       -2.28056397251507
C            4.82014450746998       -0.65965500671698       -3.54318143453253
C            6.71630401780952       -1.34167095098635       -2.21276565252970
C            7.11887175832923       -2.15447886199361       -1.01452814503582
C            6.74120182851557       -3.48899986431237       -0.90668422002707
C            7.09878424647799       -4.25060189928082        0.19101811076632
C            7.84774686841101       -3.69052220605716        1.21376984071393
C            8.22795283841755       -2.36252527525236        1.13966110266442
C            7.85526583464589       -1.61853885588508        0.03408875376383
F            8.23043602426202       -0.31854109469566       -0.00435733416259
H            4.64308376737512        3.26918364585430        1.31763908769487
H            4.85539223089890        3.49087168867440       -0.43597668538936
H            6.19790992723449        2.88999199163129        0.53681736983021
H            3.52508405710349        1.56978598641180        1.91891589803798
H            4.32283309591367        0.01690403649548        1.63731836606499
H            2.90469387816711        0.47661285268387        0.67821316253349
H            3.60943436909792       -0.58432742625871       -1.21606187217540
H            4.98524845735000       -1.11585139326078       -0.23853311521939
H            3.73119943191718       -0.61896980645303       -3.54600604446636
H            5.14452612185939       -1.31740220444475       -4.34894445499884
H            5.21372072350777        0.34630567292065       -3.72515689760822
H            7.20931973269825       -0.36070223755283       -2.19395493173300
H            7.03233097584541       -1.86967346800063       -3.11706155945979
H            6.15212955856431       -3.91832806112498       -1.70307323182775
H            6.79662246237562       -5.28537834141136        0.24949294986170
H            8.13502907374942       -4.28323227017995        2.06906594549941
H            8.80602291702214       -1.89315720393645        1.92020789132197
33
 energy: -49.013402082422 gnorm: 0.002844973736 xtb: 6.7.1 (edcfbbe)
C            5.11424269346164        2.86871827635043        0.42198393270008
N            4.66679208654682        1.50823934191951        0.18849372515784
C            3.83042068765402        0.84936648810636        1.15931075669622
C            5.11556961268293        0.91373907164484       -0.94487778327660
O            5.80890825458322        1.52097088888737       -1.74081740035497
C            4.69316263462207       -0.54605183196484       -1.13635953328773
N            5.26155663609096       -1.22471146288226       -2.28305251600209
C            4.82015063082433       -0.67211213290508       -3.55027947321219
C            6.71840988993601       -1.32822197092928       -2.20521433557946
C            7.11847364534789       -2.14480207685171       -1.00798146709704
C            6.73651247245212       -3.47893836027965       -0.90636960189352
C            7.09291865288931       -4.24681585635944        0.18699651430450
C            7.84580991044376       -3.69408840114123        1.21076924026949
C            8.22698237230416       -2.36636606345511        1.14441302802763
C            7.85368534976821       -1.61480647595510        0.04389025848020
F            8.22585218927965       -0.31367961582961        0.01519308986570
H            4.64414937244378        3.27020954666214        1.31464910909664
H            4.85948462838854        3.48993768351627       -0.43876280925538
H            6.20023882674084        2.88937518622628        0.53764987114248
H            3.54084971509192        1.56176193486243        1.92837313334724
H            4.35153729757775        0.01611160421674        1.64187619955523
H            2.92020019867246        0.46117153462890        0.69388278447783
H            3.60269330537803       -0.58951128582095       -1.22544783437784
H            4.97816735464458       -1.11101422961536       -0.24279819327189
H            3.73071213349012       -0.63919807176426       -3.55539383002630
H            5.14952900481383       -1.33294897389483       -4.35223890429527
H            5.20654648153798        0.33525541168904       -3.73866708044371
H            7.20094775580830       -0.34217164681877       -2.17766323289412
H            7.05084628349216       -1.84813831948799       -3.10956169748962
H            6.14534861705064       -3.90153907012143       -1.70448442758157
H            6.78635957713631       -5.28078125355731        0.24122169436067
H            8.13511092520488       -4.29318970917791        2.06066948356491
H            8.80543080364083       -1.90227015989839        1.92819729929296
33
 energy: -49.013528074873 gnorm: 0.003408141432 xtb: 6.7.1 (edcfbbe)
C            5.11749689179879        2.86775334944124        0.41878069514814
N            4.66628712078326        1.50865947621645        0.18503115048155
C            3.85884748805916        0.83925566214228        1.17520756163639
C            5.09103191682493        0.92005778789650       -0.96222366491823
O            5.75950434768337        1.53604280233303       -1.77234822782628
C            4.67794522441559       -0.54321196613557       -1.14795298533241
N            5.26325834802395       -1.22584381975783       -2.28605818847239
C            4.82221773535794       -0.69409973391748       -3.56246487583826
C            6.72080499467294       -1.30491967048058       -2.19141839210605
C            7.11748192742989       -2.12960965001068       -0.99752612650672
C            6.73045005789812       -3.46323688741294       -0.90718576440335
C            7.08411080715855       -4.24109777428080        0.17957182298752
C            7.84074117502747       -3.69965716671815        1.20651907855856
C            8.22510462775124       -2.37293895105134        1.15180527306661
C            7.85266837440322       -1.60965588736492        0.05868277686367
F            8.22432054421300       -0.30865997021727        0.04295595730561
H            4.64252193566438        3.27203317244627        1.30799839400726
H            4.86877635675325        3.48805479324043       -0.44413521328029
H            6.20279791885471        2.88728762388637        0.54247051765061
H            3.56996515072568        1.55097777600413        1.94515980027284
H            4.40401176047312        0.01844266254182        1.65407829209322
H            2.94800430871462        0.43273972689468        0.72674037695107
H            3.58898492635945       -0.59466117882683       -1.24762315269820
H            4.95919900502411       -1.10261828875952       -0.25010900705073
H            3.73215042130874       -0.67560620267261       -3.57411150965707
H            5.16333934504322       -1.36107426900651       -4.35563860337268
H            5.19636681082421        0.31560024283719       -3.76169343562269
H            7.18599868584878       -0.31084217849322       -2.14748042954086
H            7.07809783876078       -1.80948363906022       -3.09689556432314
H            6.13790048878690       -3.87598122566122       -1.70884740092118
H            6.77217617031248       -5.27402237420454        0.22630814107185
H            8.13003725785154       -4.30791699869943        2.04951902810902
H            8.80500003719269       -1.91826724314903        1.94048367566704
33
 energy: -49.013659436631 gnorm: 0.005410413359 xtb: 6.7.1 (edcfbbe)
C            5.11982746642968        2.86594215360130        0.41479300184318
N            4.66374296663796        1.50891258276165        0.18032461634368
C            3.89592647961316        0.82688432289410        1.19588059829678
C            5.05954334269575        0.92820511752597       -0.98218495656305
O            5.69577809298249        1.55551025817844       -1.80993550308466
C            4.65763259934979       -0.53832743500361       -1.16226689783205
N            5.26526215499010       -1.22523384116056       -2.28813810365200
C            4.82658194700304       -0.72115098374070       -3.57680435747372
C            6.72252304806614       -1.27630806972369       -2.17405229428314
C            7.11594935856944       -2.11181242155018       -0.98575778111954
C            6.72405052487578       -3.44473444658184       -0.90923144243098
C            7.07374544060860       -4.23432004126599        0.16999471651989
C            7.83235403521682       -3.70572825535475        1.20216298122375
C            8.22225785618767       -2.38054931915240        1.16031168281173
C            7.85301030575667       -1.60442419852109        0.07490565309010
F            8.22831603237611       -0.30496314675974        0.07192909711941
H            4.63535616633987        3.27550909796154        1.29693567122891
H            4.88305858042124        3.48372013412535       -0.45300831801357
H            6.20379009550356        2.88331218615862        0.55263905718288
H            3.60670932971974        1.53939256998374        1.96497750144063
H            4.47282031317353        0.02484236842779        1.67183357403915
H            2.98574341982965        0.39385237923675        0.77078352364538
H            3.57068578547779       -0.59731076909775       -1.27852759187231
H            4.93086997246134       -1.09200479902496       -0.25879345820928
H            3.73615281695915       -0.72179983235273       -3.59839145340903
H            5.18531058651381       -1.39608940024144       -4.35652577841391
H            5.18522262570507        0.29138763174571       -3.78949709448393
H            7.16807033129140       -0.27399260135911       -2.10976879516927
H            7.10525906090967       -1.76120696483368       -3.08111600298476
H            6.13098819276890       -3.84655196013261       -1.71562482831911
H            6.75760769516874       -5.26639207076930        0.20692046582018
H            8.11904967198830       -4.32375120537328        2.03875584890127
H            8.80440370440916       -1.93731904060194        1.95407666780800
33
 energy: -49.013798311563 gnorm: 0.005911867149 xtb: 6.7.1 (edcfbbe)
C            5.11990896930454        2.86382221697274        0.41110727426229
N            4.65960651099732        1.50874670674048        0.17594301718136
C            3.93347639413953        0.81555399135964        1.21582777062668
C            5.02843736170805        0.93577919506427       -0.99879534824117
O            5.63441019493986        1.57283928163453       -1.84151998793545
C            4.63727914007635       -0.53318388671243       -1.17536454200241
N            5.26687383699832       -1.22253642582780       -2.28842279990999
C            4.83278427893175       -0.74528649641990       -3.58873433683395
C            6.72242523676680       -1.25063919796927       -2.15817295923704
C            7.11425099618406       -2.09660263898108       -0.97648759276108
C            6.71949557494716       -3.42881025344869       -0.91227137928424
C            7.06492211650971       -4.22826216716258        0.16083766500337
C            7.82224503474791       -3.71005257923580        1.19907125240674
C            8.21864594413919       -2.38659510947305        1.16727606387008
C            7.85463163894524       -1.60067831377534        0.08732339921602
F            8.23772920144794       -0.30397380058320        0.09242395964854
H            4.62104712721715        3.28145162417791        1.28201088700028
H            4.90048642950876        3.47642442049724       -0.46482490364082
H            6.20172446527745        2.87864519785825        0.56883462337322
H            3.64156606604745        1.52992365767954        1.98219010747170
H            4.54222989523398        0.03532682816652        1.69003359099150
H            3.02683721608273        0.35347079990852        0.81450273986438
H            3.55258751424496       -0.59669760748644       -1.31081785994305
H            4.89890860876471       -1.08312066875930       -0.26641403659086
H            3.74272473555840       -0.76510283125556       -3.62123152569553
H            5.21082646382106       -1.42680530357034       -4.35375835325563
H            5.17653341012701        0.26967675468198       -3.81348105409091
H            7.15176138395162       -0.24285930873370       -2.07553179139669
H            7.12303746358164       -1.71679263152149       -3.06654328842356
H            6.12725406814285       -3.82213042802309       -1.72317317159392
H            6.74698261798661       -5.25983766198244        0.18850168753803
H            8.10327730763301       -4.33496869678371        2.03237712976699
H            8.80269279603703       -1.95322466703687        1.96488376261592
33
 energy: -49.013960739194 gnorm: 0.004606919000 xtb: 6.7.1 (edcfbbe)
C            5.11767700438545        2.86115055723812        0.40753577169579
N            4.65527612282720        1.50723612403123        0.17249450653044
C            3.97249815334524        0.80477990439815        1.23380448985527
C            4.99959278284473        0.94172580457772       -1.01124449007707
O            5.57573126714608        1.58694251595285       -1.86814181151957
C            4.61752271594682       -0.52901395855923       -1.18683147841056
N            5.26749115567906       -1.21760673873042       -2.28717808765497
C            4.84028273007234       -0.76445176973762       -3.59730500102742
C            6.72008763619026       -1.22877271585850       -2.14456044128955
C            7.11181322609965       -2.08424171107163       -0.97007599372860
C            6.71611489131238       -3.41580596066521       -0.91586225410795
C            7.05738695588843       -4.22285787480469        0.15287636262424
C            7.81047131724261       -3.71210746960723        1.19767954582717
C            8.21366488381261       -2.39022042201907        1.17272106095204
C            7.85632421998213       -1.59808759551580        0.09568950946873
F            8.25090998195786       -0.30487075676780        0.10377260248919
H            4.59588922596035        3.29139552776334        1.25973816258028
H            4.92474058973329        3.46365786067175       -0.48197194017723
H            6.19557999461683        2.87334067078508        0.59541622546609
H            3.67343115449233        1.52120624895557        1.99564082619062
H            4.61286018930235        0.05025360577972        1.70712348577394
H            3.07388430932896        0.31086232949209        0.85576419331657
H            3.53532236472490       -0.59406278988246       -1.34205939625697
H            4.86517679922835       -1.07763181015884       -0.27323231314419
H            3.75159734471596       -0.80323532209550       -3.64125104215166
H            5.23908782418697       -1.44973382733285       -4.34703462922709
H            5.16995521435438        0.25261445317302       -3.83165060973196
H            7.13731654528050       -0.21836421344743       -2.04525951969161
H            7.13119626377284       -1.67758295428790       -3.05388687939821
H            6.12573039326881       -3.80350105240361       -1.73079190071798
H            6.74024566212429       -5.25441641962549        0.17205761464186
H            8.08367675976955       -4.34080626044996        2.03096829678088
H            8.79906432040661       -1.96429397979793        1.97265513412044
33
 energy: -49.014104791730 gnorm: 0.006012729734 xtb: 6.7.1 (edcfbbe)
C            5.11576169591573        2.85776083579944        0.40272949198194
N            4.65244978128280        1.50446829247162        0.16816858831360
C            4.02305805085461        0.78924244436571        1.25415147637613
C            4.96460997673427        0.94899941361208       -1.02908350606092
O            5.50469459664629        1.60276883213360       -1.90514010555900
C            4.59514402869630       -0.52620095894108       -1.20134318654587
N            5.26761045362501       -1.21241545627220       -2.28773462341177
C            4.84709662281450       -0.78541450045876       -3.60822208837773
C            6.71786070588619       -1.20229921592845       -2.12867082467536
C            7.10774550836695       -2.06829429651616       -0.96152855323322