32
 energy: -52.073191967038 gnorm: 0.081367838030 xtb: 6.7.1 (edcfbbe)
C            1.21350000000000        0.11770000000000        0.06500000000000
C            2.70920000000000        0.19210000000000       -0.15080000000000
O            3.42950000000000        0.66080000000000        0.73770000000000
N            3.23170000000000       -0.35560000000000       -1.31840000000000
C            2.44070000000000       -0.82660000000000       -2.40310000000000
C            2.58260000000000       -2.13530000000000       -2.88650000000000
C            1.77570000000000       -2.61920000000000       -3.91260000000000
C            0.81550000000000       -1.78880000000000       -4.48570000000000
C            0.67450000000000       -0.47660000000000       -4.03380000000000
C            1.48430000000000        0.00360000000000       -2.99900000000000
F            3.45660000000000       -2.98070000000000       -2.31740000000000
C            4.69000000000000       -0.48930000000000       -1.41520000000000
C            5.40730000000000        0.78500000000000       -1.90280000000000
O            4.78740000000000        1.79140000000000       -2.25020000000000
N            6.81010000000000        0.72390000000000       -1.94870000000000
C            7.59910000000000       -0.43620000000000       -1.55800000000000
C            7.55710000000000        1.95250000000000       -2.15840000000000
H            1.00370000000000        0.21300000000000        1.13530000000000
H            0.81260000000000       -0.84700000000000       -0.25510000000000
H            0.71180000000000        0.93700000000000       -0.45350000000000
H            1.89220000000000       -3.64570000000000       -4.24580000000000
H            0.17840000000000       -2.16240000000000       -5.28380000000000
H           -0.06540000000000        0.17790000000000       -4.48950000000000
H            1.38260000000000        1.04130000000000       -2.68840000000000
H            4.94920000000000       -1.29770000000000       -2.10440000000000
H            5.07930000000000       -0.73590000000000       -0.42050000000000
H            7.02170000000000       -1.36090000000000       -1.56570000000000
H            7.99320000000000       -0.26910000000000       -0.55200000000000
H            8.42900000000000       -0.55300000000000       -2.26200000000000
H            6.94330000000000        2.74290000000000       -2.59470000000000
H            8.40400000000000        1.75290000000000       -2.82250000000000
H            7.93430000000000        2.29210000000000       -1.18820000000000
32
 energy: -52.080384647974 gnorm: 0.024548493690 xtb: 6.7.1 (edcfbbe)
C            1.23455673198352        0.11265995887811        0.04615836560198
C            2.73170909901154        0.18692192111974       -0.16353893424865
O            3.46472460778705        0.62838654923891        0.70085990569227
N            3.24271895873380       -0.35161983630722       -1.32255152513283
C            2.44254412667934       -0.81907546225891       -2.39349169974806
C            2.56330926266055       -2.12877217035199       -2.86950349573307
C            1.77370379835042       -2.60652517752123       -3.90179684125253
C            0.82491323714660       -1.77784299371982       -4.47585766964125
C            0.69020788578328       -0.47395122680866       -4.02546516238057
C            1.49723976786525        0.00389950766679       -3.00244050917863
F            3.45488929276664       -2.97345361959205       -2.31349795959466
C            4.69174399770422       -0.48942238454582       -1.41476594116198
C            5.39981676291655        0.78327352544403       -1.90044034147538
O            4.79269470675236        1.77458365723082       -2.25052558031127
N            6.77351513037774        0.71870507467911       -1.94572924960166
C            7.57626063658148       -0.42082782406116       -1.54950529588787
C            7.53569734879143        1.93475484707411       -2.15139374099750
H            1.04061836289860        0.21627888309127        1.11442732276211
H            0.82297944353109       -0.83693682523934       -0.29431348878795
H            0.72901550174667        0.92904604614482       -0.46340391671322
H            1.89820699462731       -3.62698398044943       -4.23582694608728
H            0.19304153608882       -2.15036974191176       -5.27023386638098
H           -0.04571264390787        0.17726961340482       -4.47647783633350
H            1.40057367747908        1.03137436818745       -2.68523011424802
H            4.93425111480676       -1.30277349869643       -2.10061042731536
H            5.06777752680357       -0.72871430218224       -0.41439389287753
H            7.00616884329577       -1.34414078753369       -1.56506303745196
H            7.98678578973699       -0.27269961795551       -0.54625228085923
H            8.40782998491825       -0.52832751950790       -2.25101275516839
H            6.89948623389315        2.70256756364863       -2.58541622895004
H            8.37347946386579        1.73933129935059       -2.82550440097814
H            7.92995281832423        2.29748415348400       -1.19590245555883
32
 energy: -52.081910672874 gnorm: 0.009430038489 xtb: 6.7.1 (edcfbbe)
C            1.25781835477193        0.11608418952355        0.03011340989994
C            2.75733896998970        0.17688171652019       -0.16729901765475
O            3.50312792938549        0.59824999518000        0.68806692874603
N            3.25584760266930       -0.35623806569494       -1.32574826672093
C            2.45193333140400       -0.81567480731472       -2.38879688505402
C            2.55599051412852       -2.12583517029462       -2.86264052362542
C            1.76960120279410       -2.60081266071604       -3.89316949491194
C            0.82906630198761       -1.76732907693059       -4.46896965977891
C            0.70507440610278       -0.46410972150117       -4.02043189473348
C            1.51373548979375        0.00870151444347       -3.00312849809331
F            3.44446752096576       -2.97877208047598       -2.30246758244173
C            4.69746443859922       -0.50171205450615       -1.41615472893920
C            5.38953074183548        0.77731505128969       -1.89986744819996
O            4.77573517497823        1.75934117206774       -2.25215014474770
N            6.74512593590023        0.71444858175817       -1.93668093532753
C            7.55522312948942       -0.41178282456769       -1.53622350363550
C            7.50479106383180        1.92653839371096       -2.15390621222107
H            1.06685097043403        0.21581419182025        1.09648830621566
H            0.84203543503444       -0.82220752152919       -0.33120991541819
H            0.76035930097361        0.93781638236263       -0.47667612319452
H            1.89479916778808       -3.62037732799219       -4.22222051937367
H            0.20226296058705       -2.13565606425389       -5.26547023693044
H           -0.02158172458080        0.19219063426608       -4.47279162730205
H            1.43441320049460        1.03462021550660       -2.68508975601834
H            4.93340650501265       -1.31663348230698       -2.09973555222620
H            5.06538579701073       -0.73321456978513       -0.41136294745500
H            6.99481033646598       -1.33964298573055       -1.55679795873718
H            7.96589704480468       -0.26783375425647       -0.53198395565177
H            8.39189331602075       -0.50588912797796       -2.23350445308006
H            6.84745323318770        2.68053295776383       -2.58005277483416
H            8.33105906361054        1.73081320796821       -2.84018444933644
H            7.91378328452857        2.29847309165297       -1.20865357921806
32
 energy: -52.082518345724 gnorm: 0.006260576841 xtb: 6.7.1 (edcfbbe)
C            1.27505371879152        0.12532786044621        0.02440757477124
C            2.77537459565157        0.16731842101001       -0.16498752883904
O            3.53148442936828        0.56735936673282        0.69280018049862
N            3.26315385121470       -0.36875831723131       -1.32494388369016
C            2.45834527515843       -0.81842979254239       -2.38597127720943
C            2.54815334832934       -2.12976759799475       -2.85758613692058
C            1.76268475229288       -2.59963688636872       -3.88969058485277
C            0.83276613249760       -1.75659802924090       -4.47018872481422
C            0.72177306079099       -0.45068803325205       -4.02452643224796
C            1.53252434195091        0.01555229802092       -3.00730751501439
F            3.42699679802783       -2.99216060679789       -2.28967497799034
C            4.70079105983910       -0.52175904778267       -1.41709961728506
C            5.38008360787426        0.76299866759104       -1.90226201900545
O            4.75091351475363        1.73615105351650       -2.25760762801079
N            6.73060968272176        0.71253078739522       -1.92782446958408
C            7.54709441000614       -0.40418896427816       -1.52102538298694
C            7.47809366418657        1.92800340028776       -2.16285959333460
H            1.07883771953377        0.21575248181163        1.08954934773360
H            0.85421884972058       -0.80345788030067       -0.35495118111262
H            0.79343141404833        0.95812422962670       -0.48019151502175
H            1.88210761759938       -3.62108447235456       -4.21327102873809
H            0.20439694314638       -2.12079161881505       -5.26657632245339
H            0.00215445242249        0.21238482425820       -4.47775824042588
H            1.47002646453467        1.04292627699516       -2.68915446445629
H            4.93573887332333       -1.33655382593344       -2.09992812145615
H            5.06858539273683       -0.74732618905430       -0.41116291717122
H            6.99733353560122       -1.33858022305819       -1.54730718029613
H            7.94595499244780       -0.25747874583761       -0.51245144257933
H            8.39118640269468       -0.48718944441899       -2.21072578993518
H            6.80250197460087        2.67219856710099       -2.57916881050997
H            8.29291956922069        1.73575404491896       -2.86318161582030
H            7.89940955491333        2.30616739554966       -1.22607270124124
32
 energy: -52.083168439211 gnorm: 0.007259662180 xtb: 6.7.1 (edcfbbe)
C            1.29358088520789        0.14080069985322        0.02292550021875
C            2.79474860752720        0.14729464232988       -0.15577520215513
O            3.56057941243344        0.52563846066086        0.70536193539817
N            3.26983659123768       -0.39247895550761       -1.31950820991634
C            2.46466059761762       -0.82574962218988       -2.38270004521583
C            2.53793167809722       -2.13758471645333       -2.85376769582966
C            1.75190931765593       -2.59904836858376       -3.88905078374817
C            0.83603518356348       -1.74224414744424       -4.47417447474035
C            0.74283546218707       -0.43270915710341       -4.03164475969792
C            1.55632490344656        0.02367086204064       -3.01205012341316
F            3.40249401205481       -3.01222393610432       -2.27623096071627
C            4.70433325110734       -0.55197744995980       -1.41809854161724
C            5.36930032528300        0.73934197468587       -1.90719077539107
O            4.71774491874651        1.69788998749143       -2.27148882757587
N            6.71861366292231        0.71219795212559       -1.91634771460228
C            7.54366976571826       -0.39212682446641       -1.49637487769558
C            7.44629322160607        1.93427640109460       -2.18073453562358
H            1.08651804985470        0.21887137506484        1.08650744784228
H            0.85979854273915       -0.77354450696799       -0.37710636667703
H            0.83970345114277        0.99261019552186       -0.47820603113645
H            1.86139513285627       -3.62315585168026       -4.20803873464112
H            0.20512272718955       -2.09904969112773       -5.27218813249553
H            0.03477486306393        0.24096619323952       -4.48893398826231
H            1.51529601384885        1.05342666285748       -2.69453184698255
H            4.93852158399124       -1.36620072081420       -2.10134484469323
H            5.07628385995196       -0.77335207263662       -0.41312971541655
H            7.00875814669254       -1.33572604428287       -1.53363281235581
H            7.91807199022243       -0.23957724932570       -0.47894032091383
H            8.40168294192359       -0.46151231759923       -2.17028770018618
H            6.74729715359234        2.66690230764220       -2.58055682599058
H            8.24252402793855        1.74787348606612       -2.90427549755703
H            7.88805971857954        2.32060043157352       -1.25718453821233
32
 energy: -52.083776039571 gnorm: 0.010291952059 xtb: 6.7.1 (edcfbbe)
C            1.30968769643924        0.15756436769511        0.02524709992978
C            2.81100007557848        0.12464277096802       -0.14436020319648
O            3.58311328062115        0.48271188360058        0.72089896773666
N            3.27554253088958       -0.42299572549959       -1.30945720376694
C            2.46935127027736       -0.83702991614541       -2.37862594456655
C            2.52464557680157       -2.14916684289066       -2.85034430620165
C            1.73791746464766       -2.59877290013286       -3.89098433083917
C            0.83975318449410       -1.72562611259558       -4.48101722186759
C            0.76690015816563       -0.41320910034693       -4.04066016493303
C            1.58139127808822        0.03019164293484       -3.01546096581511
F            3.37311273926830       -3.03666120546869       -2.26527906493487
C            4.70874915396597       -0.58584750714229       -1.41714236595927
C            5.35939307754709        0.71072776272819       -1.91504224176721
O            4.68734070345960        1.65182651529373       -2.29391312131814
N            6.70921379877649        0.71268224342110       -1.90695449479737
C            7.54580348897931       -0.37573072227565       -1.46703519446172
C            7.41397947446555        1.94200943681667       -2.20385476235801
H            1.09169153690966        0.22495019761605        1.08746237711164
H            0.85434177096056       -0.73854221062570       -0.39301987819929
H            0.88867135342548        1.03166914148416       -0.46908966004732
H            1.83382613366436       -3.62512524475015       -4.20838448510138
H            0.20581950521813       -2.07219496864414       -5.28193310051813
H            0.07323229979764        0.27265009775735       -4.50375939416513
H            1.56049178244346        1.06135766038848       -2.69844659314204
H            4.94116270850795       -1.40019593703407       -2.10134740325165
H            5.08811138600245       -0.80574034071407       -0.41491378816323
H            7.02924075663755       -1.32995710782525       -1.51997888041067
H            7.88763467948801       -0.21624101493160       -0.43822915193425
H            8.42297369132245       -0.42868802628474       -2.11806567748036
H            6.69170049653724        2.66357909060714       -2.58298730927876
H            8.18712902321342        1.76230490469628       -2.95511808110210
H            7.88177792340600        2.33695716730007       -1.29690345520032
32
 energy: -52.084374287053 gnorm: 0.010430546238 xtb: 6.7.1 (edcfbbe)
C            1.32371048221978        0.17434120921144        0.02963530603125
C            2.82427535664270        0.09926515668680       -0.13216477798465
O            3.59929286316826        0.44325138203793        0.73562465199471
N            3.28082896123726       -0.45956021211463       -1.29553106085773
C            2.47286853532358       -0.85220289234880       -2.37344049894529
C            2.50865749124403       -2.16428107141077       -2.84692813288805
C            1.72097871319234       -2.59849633673614       -3.89433398872463
C            0.84449074968457       -1.70678872616798       -4.48984201965537
C            0.79416278988591       -0.39287309710346       -4.04989796646279
C            1.60767168938929        0.03409470128330       -3.01612505848214
F            3.33895096345209       -3.06526142822559       -2.25677240007787
C            4.71424881673552       -0.62078438029887       -1.41412999105853
C            5.34991137241166        0.67978705352659       -1.92432927345435
O            4.66160624581273        1.60149755397936       -2.32357289315238
N            6.70013437735096        0.71302292032859       -1.90149540825958
C            7.55111378274620       -0.35492546274224       -1.43522401208067
C            7.38088549063265        1.94848943678520       -2.23055275181488
H            1.09769844162598        0.23463319144244        1.09084142375420
H            0.84086515153127       -0.70046335200603       -0.40301731039747
H            0.93720885303965        1.07045479530014       -0.45515367564553
H            1.79931629671908       -3.62640804545085       -4.21297143779035
H            0.20903045571635       -2.03963394845658       -5.29623605683436
H            0.11882270791349        0.30697536404917       -4.52074869903137
H            1.60531096931217        1.06550757596990       -2.69938141859970
H            4.94392263835537       -1.43634374998220       -2.09906258513191
H            5.10282197419373       -0.84038848062189       -0.41561880103887
H            7.05786414400919       -1.32132269956981       -1.50714003822535
H            7.85455882172756       -0.18778056525901       -0.39445458835755
H            8.45079993055584       -0.38678428451483       -2.05743144401439
H            6.63747584925563        2.66037547398972       -2.58567559176024
H            8.12768535411727        1.77525797631200       -3.01078786379639
H            7.87752973079753        2.35144494210762       -1.34278163725732
32
 energy: -52.084939551239 gnorm: 0.007978151402 xtb: 6.7.1 (edcfbbe)
C            1.33724847233279        0.19033514661889        0.03480188220239
C            2.83546092105911        0.07509594643411       -0.12160748764782
O            3.61213715237883        0.40653493373958        0.74925231279052
N            3.28601292737434       -0.50065850401049       -1.27882282440221
C            2.47576055447842       -0.87080551215390       -2.36678125716363
C            2.48903652428154       -2.18299392819424       -2.84169733932341
C            1.70075615847567       -2.59796686927428       -3.89730792786766
C            0.85182771171529       -1.68489995182767       -4.50062428632144
C            0.82732890269797       -0.37063365464503       -4.06011301506156
C            1.63758868718042        0.03619390967669       -3.01495641079300
F            3.29743815219262       -3.09876186866991       -2.24747049639482
C            4.72061349817794       -0.65668597261833       -1.40849177232686
C            5.33942929084906        0.64617024102095       -1.93525138316235
O            4.63851828630033        1.54661475157118       -2.35926942339599
N            6.68906914098013        0.71201616387239       -1.90110688996454
C            7.55727110607266       -0.32952631901941       -1.40261577009616
C            7.34501164498771        1.95226126252476       -2.25971831831136
H            1.10770157364319        0.24514230143770        1.09590516739395
H            0.82445295741456       -0.66034002019150       -0.41055193380257
H            0.98463143930814        1.10666274387120       -0.43692078551769
H            1.75654060832640       -3.62692923631701       -4.21878012015688
H            0.21701469847233       -2.00067970357950       -5.31499792647283
H            0.17480922269971        0.34509397851362       -4.54002677843232
H            1.65337400195421        1.06689500353613       -2.69816452621618
H            4.94692767533627       -1.47527954528062       -2.09256443490543
H            5.11923021432699       -0.87424937010729       -0.41372168763818
H            7.09440537996467       -1.30996313871181       -1.49463711978441
H            7.81824769050559       -0.15410287042648       -0.35118918067950
H            8.47996635381666       -0.33392545127054       -1.99161227726981
H            6.58287975016389        2.65570565466344       -2.58861109589315
H            8.06313774427460        1.78517212462415       -3.06787208455587
H            7.87087155825748        2.36260775419391       -1.39317480882867
32
 energy: -52.085360383591 gnorm: 0.005420681446 xtb: 6.7.1 (edcfbbe)
C            1.34981083734538        0.20317089132978        0.03872342618243
C            2.84506388020037        0.05224605913234       -0.11278574625848
O            3.62258326832427        0.37819588894013        0.75870782037802
N            3.29111861216167       -0.54042606983457       -1.26209429851625
C            2.47890318776094       -0.88969646788820       -2.35897775971721
C            2.46882417064228       -2.20185792892856       -2.83462467526176
C            1.68065952003273       -2.59631051968004       -3.89842521811526
C            0.86218886576493       -1.66197347475515       -4.51121033375659
C            0.86405379585344       -0.34837535640493       -4.06969900373398
C            1.66954865646588        0.03727184578194       -3.01251901721010
F            3.25266200182814       -3.13287139841643       -2.23576642591282
C            4.72684114245705       -0.68928527441523       -1.40090041777428
C            5.32815573522029        0.61419010355207       -1.94508507136540
O            4.61718688078957        1.49317265087307       -2.39491972056955
N            6.67572487238109        0.70901531188397       -1.90449262825745
C            7.56076033196904       -0.30362161367824       -1.37483742276871
C            7.30912286876498        1.95243801522825       -2.28718029855227
H            1.12020591045871        0.25346599472095        1.10039906612587
H            0.81101086954539       -0.62405620532661       -0.41760770962833
H            1.02689577132054        1.13570614568374       -0.41999915410288
H            1.71180505941247       -3.62571293897699       -4.22253226807450
H            0.23063109497766       -1.96017472902138       -5.33473038748691
H            0.23670729420291        0.38343028384271       -4.55864030310139
H            1.70329168342277        1.06688185852858       -2.69531824544194
H            4.95048342270190       -1.51255279688884       -2.08152581801015
H            5.13363125020313       -0.90070784965605       -0.40844505341202
H            7.13179331250800       -1.29771608872160       -1.48303660864578
H            7.78226540538283       -0.12096836834065       -0.31649403167136
H            8.50102967975390       -0.27740481974217       -1.93289034663759
H            6.53130442325843        2.64888002418542       -2.59168794840952
H            7.99987287431388        1.79038864947155       -3.11915474894266
H            7.86056332057485        2.36935817752197       -1.44094965135051
32
 energy: -52.085614528131 gnorm: 0.003886754770 xtb: 6.7.1 (edcfbbe)
C            1.36099025605259        0.21074228176420        0.04123743606565
C            2.85322990907691        0.03686811926214       -0.10666455698512
O            3.63282441315433        0.35827101570788        0.76576121399880
N            3.29525257527585       -0.57094898736502       -1.24834200297674
C            2.48207164795509       -0.90450318142876       -2.35094299661773
C            2.45093172375350       -2.21648556970804       -2.82607564610518
C            1.66440977103739       -2.59313706831271       -3.89716548774340
C            0.87424522658988       -1.64123410808305       -4.51952761184046
C            0.89925814717744       -0.32852700860187       -4.07780722952514
C            1.69978286700895        0.03909205668626       -3.01070652155296
F            3.21138826842254       -3.16091376767719       -2.22142102914098
C            4.73130517385212       -0.71512346505006       -1.39319678361764
C            5.31719085108625        0.58639158522916       -1.95608214528390
O            4.59775429003325        1.44684014814477       -2.42630384817473
N            6.66204420562542        0.70395196874910       -1.90994270980213
C            7.56043869045990       -0.28226006402573       -1.35490015370109
C            7.27693006735415        1.95003695448180       -2.30998429876916
H            1.13148577561971        0.25416550657288        1.10359578732104
H            0.80505023788082       -0.59706093993442       -0.42723533844743
H            1.06049323788268        1.15561693158640       -0.40563887024170
H            1.67415144298011       -3.62232663285100       -4.22252037011334
H            0.24739487679391       -1.92515953481020       -5.35109268285949
H            0.29500855903231        0.41680569821934       -4.57400234911786
H            1.75015859817088        1.06745703486552       -2.69251425201588
H            4.95334580587946       -1.54492557418628       -2.06702027721556
H            5.14371227340901       -0.91522934630593       -0.40094763892262
H            7.16348678820274       -1.28801876665982       -1.47543479087048
H            7.74717172438191       -0.09477582213295       -0.29146612537179
H            8.51341327503369       -0.22652839878110       -1.88683659747630
H            6.48729448055114        2.64050637298564       -2.59659841838423
H            7.94605667710864        1.79156661242700       -3.15893949353239
H            7.84642816315682        2.37294594923305       -1.47998421097930
32
 energy: -52.085765741579 gnorm: 0.003204139936 xtb: 6.7.1 (edcfbbe)
C            1.37025703152735        0.21361016613028        0.04356307831581
C            2.86057500579241        0.02323630913426       -0.09979625880340
O            3.64135233447738        0.34860413467169        0.76985974502395
N            3.29889607551792       -0.59473884151923       -1.23610998335661
C            2.48585489310556       -0.91569116801033       -2.34257233817487
C            2.43581157570038       -2.22698908642917       -2.81701098928074
C            1.65191332421207       -2.58869104211930       -3.89469210093029
C            0.88732037309657       -1.62221683946127       -4.52606754104155
C            0.93237317165417       -0.31029839338420       -4.08452133170772
C            1.72799683108771        0.04190896904637       -3.00897190757192
F            3.17422675664153       -3.18350011862609       -2.20531199756065
C            4.73461872795007       -0.73536497708388       -1.38573808763320
C            5.30737814827743        0.56330068325660       -1.96624065587566
O            4.57952460686845        1.40708877006114       -2.45406871195309
N            6.64918972014277        0.69816830774856       -1.91602774114160
C            7.55676648399223       -0.26564274044389       -1.34042104825332
C            7.24865902326849        1.94678355771461       -2.33093822373412
H            1.13761727667505        0.24975874989024        1.10548862583907
H            0.80540106982046       -0.57956376995385       -0.43642179507461
H            1.08637516646158        1.16727533675348       -0.39461985396496
H            1.64389620413710       -3.61748629944800       -4.21990501694591
H            0.26554022608907       -1.89479822394219       -5.36462671900082
H            0.34937979987669        0.44684556310722       -4.58720595833537
H            1.79506233840664        1.06912216835328       -2.68965906571682
H            4.95681733715216       -1.57300856439406       -2.04985601885970
H            5.15085144498040       -0.92033361791638       -0.39230446732771
H            7.18839360674167       -1.28068260957214       -1.47070082923338
H            7.71308972791846       -0.07613997746062       -0.27302227232549
H            8.51884843188639       -0.18417304283197       -1.84985065996303
H            6.44895980551880        2.63131297353186       -2.60503697469852
H            7.90124204764738        1.79067267725937       -3.19252710093651
H            7.83051143337497        2.37573094593877       -1.51338579977643
32
 energy: -52.085849955328 gnorm: 0.003110375655 xtb: 6.7.1 (edcfbbe)
C            1.37635771591766        0.21206775586504        0.04653852657102
C            2.86557076470397        0.01719928990226       -0.09366685902755
O            3.64837545612216        0.34371512081914        0.77552306333231
N            3.30095593718405       -0.60981685389566       -1.22569559070095
C            2.48896503739219       -0.92221519439964       -2.33477999343063
C            2.42329427946136       -2.23297022432074       -2.80741419025224
C            1.64316228710415       -2.58401292878953       -3.89106154703742
C            0.90000722148280       -1.60675814805167       -4.53084235743917
C            0.96089567729262       -0.29512700470444       -4.09061699668034
C            1.75156400494093        0.04585682386365       -3.00833901762488
F            3.14329253516895       -3.19855464292103       -2.18837842724554
C            4.73614736946181       -0.74911463257201       -1.37899126688394
C            5.29976538629167        0.54479215807865       -1.97842737766387
O            4.56586489194122        1.37680226831695       -2.47557739575710
N            6.63920178641479        0.69237791444073       -1.92461116555549
C            7.55203041019068       -0.25425811666022       -1.33151779067096
C            7.22662660273975        1.94349970911669       -2.34954734283897
H            1.13869134408543        0.23830934886677        1.10762612611478
H            0.80917124047609       -0.57138954323262       -0.44643194227388
H            1.10192032838782        1.17244798013652       -0.38296016001306
H            1.62203703572052       -3.61266297485469       -4.21488449728413