      -----------------------------------------------------------      
     |                   =====================                   |     
     |                           x T B                           |     
     |                   =====================                   |     
     |                         S. Grimme                         |     
     |          Mulliken Center for Theoretical Chemistry        |     
     |                    University of Bonn                     |     
      -----------------------------------------------------------      

   * xtb version 6.7.1 (edcfbbe) compiled by 'conda@c0858423619e' on 2025-09-04

   xtb is free software: you can redistribute it and/or modify it under
   the terms of the GNU Lesser General Public License as published by
   the Free Software Foundation, either version 3 of the License, or
   (at your option) any later version.
   
   xtb is distributed in the hope that it will be useful,
   but WITHOUT ANY WARRANTY; without even the implied warranty of
   MERCHANTABILITY or FITNESS FOR A PARTICULAR PURPOSE.  See the
   GNU Lesser General Public License for more details.
   
   Cite this work as:
   * C. Bannwarth, E. Caldeweyher, S. Ehlert, A. Hansen, P. Pracht,
     J. Seibert, S. Spicher, S. Grimme, WIREs Comput. Mol. Sci., 2020, 11,
     e01493. DOI: 10.1002/wcms.1493
   
   for GFN2-xTB:
   * C. Bannwarth, S. Ehlert and S. Grimme., J. Chem. Theory Comput., 2019,
     15, 1652-1671. DOI: 10.1021/acs.jctc.8b01176
   for GFN1-xTB:
   * S. Grimme, C. Bannwarth, P. Shushkov, J. Chem. Theory Comput., 2017,
     13, 1989-2009. DOI: 10.1021/acs.jctc.7b00118
   for GFN0-xTB:
   * P. Pracht, E. Caldeweyher, S. Ehlert, S. Grimme, ChemRxiv, 2019, preprint.
     DOI: 10.26434/chemrxiv.8326202.v1
   for GFN-FF:
   * S. Spicher and S. Grimme, Angew. Chem. Int. Ed., 2020, 59, 15665-15673.
     DOI: 10.1002/anie.202004239
   
   for ALPB and GBSA implicit solvation:
   * S. Ehlert, M. Stahn, S. Spicher, S. Grimme, J. Chem. Theory Comput.,
     2021, 17, 4250-4261. DOI: 10.1021/acs.jctc.1c00471
   
   for ddCOSMO and CPCM-X implicit solvation:
   * M. Stahn, S. Ehlert, S. Grimme, J. Phys. Chem. A,
     2023, XX, XXXX-XXXX. DOI: 10.1021/acs.jpca.3c04382
   
   for DFT-D4:
   * E. Caldeweyher, C. Bannwarth and S. Grimme, J. Chem. Phys., 2017,
     147, 034112. DOI: 10.1063/1.4993215
   * E. Caldeweyher, S. Ehlert, A. Hansen, H. Neugebauer, S. Spicher,
     C. Bannwarth and S. Grimme, J. Chem. Phys., 2019, 150, 154122.
     DOI: 10.1063/1.5090222
   * E. Caldeweyher, J.-M. Mewes, S. Ehlert and S. Grimme, Phys. Chem. Chem. Phys.
     2020, 22, 8499-8512. DOI: 10.1039/D0CP00502A
   
   for sTDA-xTB:
   * S. Grimme and C. Bannwarth, J. Chem. Phys., 2016, 145, 054103.
     DOI: 10.1063/1.4959605
   
   in the mass-spec context:
   * V. Asgeirsson, C. Bauer and S. Grimme, Chem. Sci., 2017, 8, 4879.
     DOI: 10.1039/c7sc00601b
   * J. Koopman and S. Grimme, ACS Omega 2019, 4, 12, 15120-15133.
     DOI: 10.1021/acsomega.9b02011
   
   for metadynamics refer to:
   * S. Grimme, J. Chem. Theory Comput., 2019, 155, 2847-2862
     DOI: 10.1021/acs.jctc.9b00143
   
   for SPH calculations refer to:
   * S. Spicher and S. Grimme, J. Chem. Theory Comput., 2021, 17, 1701-1714
     DOI: 10.1021/acs.jctc.0c01306
   
   for ONIOM refer to:
   * C. Plett, A. Katbashev, S. Ehlert, S. Grimme, M. Bursch,
     Phys. Chem. Chem. Phys., 2023, 25, 17860-17868. DOI: 10.1039/D3CP02178E
   
   for DIPRO refer to:
   * J. Kohn, N. Gildemeister, S. Grimme, D. Fazzi, A. Hansen,
     J. Chem. Phys., 2023, just accepted.
   
   for PTB refer to:
   * S. Grimme, M. Mueller, A. Hansen, J. Chem. Phys., 2023, 158, 124111.
     DOI: 10.1063/5.0137838
   
   with help from (in alphabetical order)
   P. Atkinson, C. Bannwarth, F. Bohle, G. Brandenburg, E. Caldeweyher
   M. Checinski, S. Dohm, S. Ehlert, S. Ehrlich, I. Gerasimov, C. Hölzer
   A. Katbashev, J. Kohn, J. Koopman, C. Lavigne, S. Lehtola, F. März, M. Müller,
   F. Musil, H. Neugebauer, J. Pisarek, C. Plett, P. Pracht, F. Pultar,
   J. Seibert, P. Shushkov, S. Spicher, M. Stahn, M. Steiner, T. Strunk,
   J. Stückrath, T. Rose, and J. Unsleber
   
 * started run on 2026/01/25 at 20:06:38.991     
   ID    Z sym.   atoms
    1    6 C      1, 2, 5-10, 12, 13, 15-18, 21, 22
    2    8 O      3, 11, 14, 19
    3    7 N      4, 20
    4    1 H      23-46

           -------------------------------------------------
          |                Calculation Setup                |
           -------------------------------------------------

          program call               : xtb /home/tuu61186/STEPs/1_xTB_structureOPT/../0_openBable_SMILES/out/xyz/STEPs_0005.xyz --gfn 2 --opt
          hostname                   : c01
          coordinate file            : /home/tuu61186/STEPs/1_xTB_structureOPT/../0_openBable_SMILES/out/xyz/STEPs_0005.xyz
          omp threads                :                     1


           -------------------------------------------------
          |                 G F N 2 - x T B                 |
           -------------------------------------------------

        Reference                      10.1021/acs.jctc.8b01176
      * Hamiltonian:
        H0-scaling (s, p, d)           1.850000    2.230000    2.230000
        zeta-weighting                 0.500000
      * Dispersion:
        s8                             2.700000
        a1                             0.520000
        a2                             5.000000
        s9                             5.000000
      * Repulsion:
        kExp                           1.500000    1.000000
        rExp                           1.000000
      * Coulomb:
        alpha                          2.000000
        third order                    shell-resolved
        anisotropic                    true
        a3                             3.000000
        a5                             4.000000
        cn-shift                       1.200000
        cn-exp                         4.000000
        max-rad                        5.000000

q/qsh data taken from xtbrestart
CAMM data taken from xtbrestart

          ...................................................
          :                      SETUP                      :
          :.................................................:
          :  # basis functions                 112          :
          :  # atomic orbitals                 112          :
          :  # shells                           68          :
          :  # electrons                       122          :
          :  max. iterations                   250          :
          :  Hamiltonian                  GFN2-xTB          :
          :  restarted?                       true          :
          :  GBSA solvation                  false          :
          :  PC potential                    false          :
          :  electronic temp.          300.0000000     K    :
          :  accuracy                    1.0000000          :
          :  -> integral cutoff          0.2500000E+02      :
          :  -> integral neglect         0.1000000E-07      :
          :  -> SCF convergence          0.1000000E-05 Eh   :
          :  -> wf. convergence          0.1000000E-03 e    :
          :  Broyden damping             0.4000000          :
          :  net charge                          0          :
          :  unpaired electrons                  0          :
          ...................................................

 iter      E             dE          RMSdq      gap      omega  full diag
   1    -69.4079940 -0.694080E+02  0.381E+00    3.69       0.0  T
   2    -69.4250879 -0.170939E-01  0.225E+00    3.84       1.0  T
   3    -69.4019319  0.231560E-01  0.776E-01    3.73       1.0  T
   4    -69.4325209 -0.305890E-01  0.198E-01    3.86       1.0  T
   5    -69.4331160 -0.595120E-03  0.101E-01    3.84       1.0  T
   6    -69.4331240 -0.791169E-05  0.265E-02    3.86       1.0  T
   7    -69.4331408 -0.168446E-04  0.102E-02    3.85       1.4  T
   8    -69.4331420 -0.115458E-05  0.505E-03    3.85       2.9  T
   9    -69.4331422 -0.196111E-06  0.202E-03    3.85       7.3  T
  10    -69.4331422 -0.438415E-07  0.791E-04    3.85      18.6  T
  11    -69.4331422 -0.715936E-08  0.243E-04    3.85      60.6  T

   *** convergence criteria satisfied after 11 iterations ***

         #    Occupation            Energy/Eh            Energy/eV
      -------------------------------------------------------------
         1        2.0000           -0.7170191             -19.5111
       ...           ...                  ...                  ...
        55        2.0000           -0.4228281             -11.5057
        56        2.0000           -0.4041543             -10.9976
        57        2.0000           -0.3904450             -10.6245
        58        2.0000           -0.3858251             -10.4988
        59        2.0000           -0.3823626             -10.4046
        60        2.0000           -0.3755254             -10.2186
        61        2.0000           -0.3666220              -9.9763 (HOMO)
        62                         -0.2251317              -6.1261 (LUMO)
        63                         -0.2162798              -5.8853
        64                         -0.2125626              -5.7841
        65                         -0.2030418              -5.5250
        66                         -0.1002223              -2.7272
       ...                                ...                  ...
       112                          0.6174205              16.8009
      -------------------------------------------------------------
                  HL-Gap            0.1414903 Eh            3.8501 eV
             Fermi-level           -0.2958769 Eh           -8.0512 eV

 SCC (total)                   0 d,  0 h,  0 min,  0.043 sec
 SCC setup                      ...        0 min,  0.000 sec (  0.465%)
 Dispersion                     ...        0 min,  0.000 sec (  0.995%)
 classical contributions        ...        0 min,  0.000 sec (  0.296%)
 integral evaluation            ...        0 min,  0.006 sec ( 12.791%)
 iterations                     ...        0 min,  0.020 sec ( 45.119%)
 molecular gradient             ...        0 min,  0.017 sec ( 39.971%)
 printout                       ...        0 min,  0.000 sec (  0.343%)

         :::::::::::::::::::::::::::::::::::::::::::::::::::::
         ::                     SUMMARY                     ::
         :::::::::::::::::::::::::::::::::::::::::::::::::::::
         :: total energy             -68.628152106606 Eh    ::
         :: gradient norm              0.081961713201 Eh/a0 ::
         :: HOMO-LUMO gap              3.850148243903 eV    ::
         ::.................................................::
         :: SCC energy               -69.433061072836 Eh    ::
         :: -> isotropic ES            0.106664486525 Eh    ::
         :: -> anisotropic ES          0.009890018771 Eh    ::
         :: -> anisotropic XC          0.020705127764 Eh    ::
         :: -> dispersion             -0.041810509653 Eh    ::
         :: repulsion energy           0.804908966230 Eh    ::
         :: add. restraining           0.000000000000 Eh    ::
         :: total charge              -0.000000000000 e     ::
         :::::::::::::::::::::::::::::::::::::::::::::::::::::

      ----------------------------------------------------------- 
     |                   =====================                   |
     |                        A N C O P T                        |
     |                   =====================                   |
     |               Approximate Normal Coordinate               |
     |                Rational Function Optimizer                |
      ----------------------------------------------------------- 
      ----------------------------------------------------------- 
     |                   =====================                   |
     |                        A N C O P T                        |
     |                   =====================                   |
     |               Approximate Normal Coordinate               |
     |                Rational Function Optimizer                |
      ----------------------------------------------------------- 

          ...................................................
          :                      SETUP                      :
          :.................................................:
          :   optimization level            normal          :
          :   max. optcycles                   200          :
          :   ANC micro-cycles                  20          :
          :   degrees of freedom               132          :
          :.................................................:
          :   RF solver                   davidson          :
          :   write xtbopt.log                true          :
          :   linear?                        false          :
          :   energy convergence         0.5000000E-05 Eh   :
          :   grad. convergence          0.1000000E-02 Eh/α :
          :   maxmium RF displ.          1.0000000          :
          :   Hlow (freq-cutoff)         0.1000000E-01      :
          :   Hmax (freq-cutoff)         5.0000000          :
          :   S6 in model hess.         20.0000000          :
          ...................................................

generating ANC from exact Hessian ...
Using Lindh-Hessian (1995)
 Shifting diagonal of input Hessian by    9.8418572729338447E-003
 Lowest  eigenvalues of input Hessian
    0.000000    0.000000    0.000000    0.000000    0.000000    0.000000
    0.010000    0.010068    0.010215    0.010558    0.010842    0.011298
    0.011645    0.012763    0.013229    0.013828    0.014342    0.014419
 Highest eigenvalues
    1.742967    1.826858    2.009873    2.049874    2.151930    2.178174


........................................................................
.............................. CYCLE    1 ..............................
........................................................................

 iter      E             dE          RMSdq      gap      omega  full diag
   1    -69.4331422 -0.694331E+02  0.104E-04    3.85       0.0  T
   2    -69.4331422 -0.803624E-10  0.637E-05    3.85     231.4  T
   3    -69.4331422 -0.241442E-10  0.401E-05    3.85     367.6  T
     SCC iter.                  ...        0 min,  0.006 sec
     gradient                   ...        0 min,  0.017 sec
 * total energy  :   -68.6281521 Eh     change       -0.3539640E-09 Eh
   gradient norm :     0.0819635 Eh/α   predicted     0.0000000E+00 (-100.00%)
   displ. norm   :     0.3251386 α      lambda       -0.1315170E-01
   maximum displ.:     0.0951664 α      in ANC's #20, #41, #29, ...

........................................................................
.............................. CYCLE    2 ..............................
........................................................................

 iter      E             dE          RMSdq      gap      omega  full diag
   1    -69.4786536 -0.694787E+02  0.184E-01    3.93       0.0  T
   2    -69.4788002 -0.146556E-03  0.111E-01    3.94       1.0  T
   3    -69.4787936  0.655358E-05  0.461E-02    3.94       1.0  T
   4    -69.4788219 -0.282583E-04  0.757E-03    3.94       1.9  T
   5    -69.4788229 -0.107992E-05  0.372E-03    3.94       4.0  T
   6    -69.4788231 -0.166351E-06  0.182E-03    3.94       8.1  T
   7    -69.4788231 -0.355602E-07  0.700E-04    3.94      21.1  T
   8    -69.4788232 -0.227816E-08  0.207E-04    3.94      71.3  T
     SCC iter.                  ...        0 min,  0.013 sec
     gradient                   ...        0 min,  0.017 sec
 * total energy  :   -68.6369510 Eh     change       -0.8798857E-02 Eh
   gradient norm :     0.0260020 Eh/α   predicted    -0.7276026E-02 ( -17.31%)
   displ. norm   :     0.3301761 α      lambda       -0.3335317E-02
   maximum displ.:     0.1481916 α      in ANC's #6, #15, #20, ...

........................................................................
.............................. CYCLE    3 ..............................
........................................................................

 iter      E             dE          RMSdq      gap      omega  full diag
   1    -69.4989473 -0.694989E+02  0.110E-01    3.97       0.0  T
   2    -69.4990341 -0.867815E-04  0.668E-02    3.98       1.0  T
   3    -69.4990370 -0.292316E-05  0.316E-02    3.98       1.0  T
   4    -69.4990401 -0.314596E-05  0.722E-03    3.98       2.0  T
   5    -69.4990418 -0.170517E-05  0.177E-03    3.98       8.3  T
   6    -69.4990419 -0.310927E-07  0.906E-04    3.98      16.3  T
   7    -69.4990419 -0.460749E-08  0.297E-04    3.98      49.7  T
     SCC iter.                  ...        0 min,  0.012 sec
     gradient                   ...        0 min,  0.017 sec
 * total energy  :   -68.6390112 Eh     change       -0.2060284E-02 Eh
   gradient norm :     0.0097613 Eh/α   predicted    -0.1850704E-02 ( -10.17%)
   displ. norm   :     0.2812006 α      lambda       -0.8757238E-03
   maximum displ.:     0.1804066 α      in ANC's #6, #10, #5, ...

........................................................................
.............................. CYCLE    4 ..............................
........................................................................

 iter      E             dE          RMSdq      gap      omega  full diag
   1    -69.5027343 -0.695027E+02  0.577E-02    3.97       0.0  T
   2    -69.5027557 -0.213916E-04  0.347E-02    3.98       1.0  T
   3    -69.5027561 -0.380511E-06  0.159E-02    3.98       1.0  T
   4    -69.5027571 -0.997960E-06  0.434E-03    3.98       3.4  T
   5    -69.5027578 -0.668993E-06  0.813E-04    3.98      18.1  T
   6    -69.5027578 -0.201148E-08  0.371E-04    3.98      39.7  T
     SCC iter.                  ...        0 min,  0.010 sec
     gradient                   ...        0 min,  0.017 sec
 * total energy  :   -68.6396930 Eh     change       -0.6817521E-03 Eh
   gradient norm :     0.0065856 Eh/α   predicted    -0.4724886E-03 ( -30.69%)
   displ. norm   :     0.3933081 α      lambda       -0.8569000E-03
   maximum displ.:     0.2628470 α      in ANC's #6, #5, #10, ...

........................................................................
.............................. CYCLE    5 ..............................
........................................................................

 iter      E             dE          RMSdq      gap      omega  full diag
   1    -69.5031101 -0.695031E+02  0.742E-02    3.97       0.0  T
   2    -69.5031257 -0.155953E-04  0.440E-02    3.97       1.0  T
   3    -69.5031230  0.264745E-05  0.168E-02    3.97       1.0  T
   4    -69.5031276 -0.453315E-05  0.416E-03    3.97       3.5  T
   5    -69.5031281 -0.568598E-06  0.120E-03    3.97      12.3  T
   6    -69.5031281 -0.329203E-08  0.456E-04    3.97      32.3  T
   7    -69.5031281 -0.166173E-08  0.162E-04    3.97      91.2  T
     SCC iter.                  ...        0 min,  0.012 sec
     gradient                   ...        0 min,  0.017 sec
 * total energy  :   -68.6403478 Eh     change       -0.6548183E-03 Eh
   gradient norm :     0.0064884 Eh/α   predicted    -0.4947290E-03 ( -24.45%)
   displ. norm   :     0.3677201 α      lambda       -0.5680794E-03
   maximum displ.:     0.2507005 α      in ANC's #6, #5, #10, ...

........................................................................
.............................. CYCLE    6 ..............................
........................................................................

 iter      E             dE          RMSdq      gap      omega  full diag
   1    -69.5022153 -0.695022E+02  0.687E-02    3.96       0.0  T
   2    -69.5022192 -0.391029E-05  0.405E-02    3.96       1.0  T
   3    -69.5022157  0.350372E-05  0.118E-02    3.96       1.2  T
   4    -69.5022205 -0.473912E-05  0.241E-03    3.96       6.1  T
   5    -69.5022205 -0.861149E-07  0.117E-03    3.96      12.6  T
   6    -69.5022206 -0.587868E-08  0.353E-04    3.96      41.8  T
   7    -69.5022206 -0.132677E-08  0.136E-04    3.96     108.5  T
     SCC iter.                  ...        0 min,  0.011 sec
     gradient                   ...        0 min,  0.017 sec
 * total energy  :   -68.6407806 Eh     change       -0.4328285E-03 Eh
   gradient norm :     0.0073085 Eh/α   predicted    -0.3224496E-03 ( -25.50%)
   displ. norm   :     0.3046421 α      lambda       -0.3657751E-03
   maximum displ.:     0.2104779 α      in ANC's #6, #5, #10, ...

........................................................................
.............................. CYCLE    7 ..............................
........................................................................

 iter      E             dE          RMSdq      gap      omega  full diag
   1    -69.5022496 -0.695022E+02  0.586E-02    3.96       0.0  T
   2    -69.5022521 -0.252359E-05  0.347E-02    3.96       1.0  T
   3    -69.5022503  0.180135E-05  0.834E-03    3.96       1.8  T
   4    -69.5022528 -0.249325E-05  0.214E-03    3.96       6.9  T
   5    -69.5022529 -0.832825E-07  0.998E-04    3.96      14.8  T
   6    -69.5022529 -0.447010E-08  0.298E-04    3.96      49.5  T
     SCC iter.                  ...        0 min,  0.010 sec
     gradient                   ...        0 min,  0.017 sec
 * total energy  :   -68.6410522 Eh     change       -0.2715941E-03 Eh
   gradient norm :     0.0051877 Eh/α   predicted    -0.1998648E-03 ( -26.41%)
   displ. norm   :     0.2406968 α      lambda       -0.2164828E-03
   maximum displ.:     0.1648049 α      in ANC's #6, #5, #3, ...

........................................................................
.............................. CYCLE    8 ..............................
........................................................................

 iter      E             dE          RMSdq      gap      omega  full diag
   1    -69.5031137 -0.695031E+02  0.478E-02    3.96       0.0  T
   2    -69.5031162 -0.246271E-05  0.284E-02    3.96       1.0  T
   3    -69.5031149  0.128448E-05  0.715E-03    3.96       2.1  T
   4    -69.5031167 -0.174633E-05  0.194E-03    3.96       7.6  T
   5    -69.5031168 -0.104402E-06  0.865E-04    3.96      17.0  T
   6    -69.5031168 -0.571343E-08  0.314E-04    3.96      46.9  T
     SCC iter.                  ...        0 min,  0.010 sec
     gradient                   ...        0 min,  0.017 sec
 * total energy  :   -68.6412049 Eh     change       -0.1526363E-03 Eh
   gradient norm :     0.0024838 Eh/α   predicted    -0.1145130E-03 ( -24.98%)
   displ. norm   :     0.1842586 α      lambda       -0.1133587E-03
   maximum displ.:     0.1156559 α      in ANC's #6, #5, #3, ...

........................................................................
.............................. CYCLE    9 ..............................
........................................................................

 iter      E             dE          RMSdq      gap      omega  full diag
   1    -69.5039019 -0.695039E+02  0.383E-02    3.96       0.0  T
   2    -69.5039028 -0.855023E-06  0.228E-02    3.96       1.0  T
   3    -69.5039020  0.772680E-06  0.489E-03    3.96       3.0  T
   4    -69.5039030 -0.997354E-06  0.114E-03    3.96      12.9  T
   5    -69.5039030 -0.265609E-07  0.569E-04    3.96      25.9  T
   6    -69.5039030 -0.302587E-08  0.215E-04    3.96      68.5  T
     SCC iter.                  ...        0 min,  0.010 sec
     gradient                   ...        0 min,  0.017 sec
 * total energy  :   -68.6412874 Eh     change       -0.8254102E-04 Eh
   gradient norm :     0.0024574 Eh/α   predicted    -0.5860525E-04 ( -29.00%)
   displ. norm   :     0.1885984 α      lambda       -0.9323301E-04
   maximum displ.:     0.1002255 α      in ANC's #6, #3, #7, ...

........................................................................
.............................. CYCLE   10 ..............................
........................................................................

 iter      E             dE          RMSdq      gap      omega  full diag
   1    -69.5044060 -0.695044E+02  0.420E-02    3.96       0.0  T
   2    -69.5044065 -0.507013E-06  0.250E-02    3.96       1.0  T
   3    -69.5044062  0.339899E-06  0.351E-03    3.96       4.2  T
   4    -69.5044067 -0.485016E-06  0.926E-04    3.96      15.9  T
   5    -69.5044067 -0.103644E-07  0.486E-04    3.96      30.3  T
     SCC iter.                  ...        0 min,  0.008 sec
     gradient                   ...        0 min,  0.017 sec
 * total energy  :   -68.6413572 Eh     change       -0.6981321E-04 Eh
   gradient norm :     0.0031130 Eh/α   predicted    -0.4827685E-04 ( -30.85%)
   displ. norm   :     0.2112740 α      lambda       -0.9176879E-04
   maximum displ.:     0.1017008 α      in ANC's #3, #7, #6, ...

........................................................................
.............................. CYCLE   11 ..............................
........................................................................

 iter      E             dE          RMSdq      gap      omega  full diag
   1    -69.5044033 -0.695044E+02  0.491E-02    3.96       0.0  T
   2    -69.5044038 -0.559359E-06  0.291E-02    3.96       1.0  T
   3    -69.5044037  0.115963E-06  0.284E-03    3.96       5.2  T
   4    -69.5044040 -0.246845E-06  0.927E-04    3.96      15.9  T
   5    -69.5044040 -0.100370E-07  0.499E-04    3.96      29.5  T
     SCC iter.                  ...        0 min,  0.008 sec
     gradient                   ...        0 min,  0.017 sec
 * total energy  :   -68.6414264 Eh     change       -0.6921863E-04 Eh
   gradient norm :     0.0027332 Eh/α   predicted    -0.4793310E-04 ( -30.75%)
   displ. norm   :     0.1927418 α      lambda       -0.7624199E-04
   maximum displ.:     0.1046541 α      in ANC's #7, #3, #6, ...

........................................................................
.............................. CYCLE   12 ..............................
........................................................................

 iter      E             dE          RMSdq      gap      omega  full diag
   1    -69.5041965 -0.695042E+02  0.463E-02    3.96       0.0  T
   2    -69.5041969 -0.429220E-06  0.274E-02    3.96       1.0  T
   3    -69.5041964  0.443642E-06  0.354E-03    3.96       4.2  T
   4    -69.5041970 -0.595723E-06  0.889E-04    3.96      16.6  T
   5    -69.5041970 -0.117801E-07  0.465E-04    3.96      31.7  T
     SCC iter.                  ...        0 min,  0.008 sec
     gradient                   ...        0 min,  0.017 sec
 * total energy  :   -68.6414844 Eh     change       -0.5790514E-04 Eh
   gradient norm :     0.0022403 Eh/α   predicted    -0.3953747E-04 ( -31.72%)
   displ. norm   :     0.1611033 α      lambda       -0.5787555E-04
   maximum displ.:     0.0951019 α      in ANC's #7, #3, #19, ...

........................................................................
.............................. CYCLE   13 ..............................
........................................................................

 iter      E             dE          RMSdq      gap      omega  full diag
   1    -69.5039738 -0.695040E+02  0.385E-02    3.96       0.0  T
   2    -69.5039741 -0.381403E-06  0.229E-02    3.96       1.0  T
   3    -69.5039736  0.506848E-06  0.368E-03    3.96       4.0  T
   4    -69.5039743 -0.656994E-06  0.834E-04    3.96      17.7  T
   5    -69.5039743 -0.691114E-08  0.435E-04    3.96      33.9  T
     SCC iter.                  ...        0 min,  0.008 sec
     gradient                   ...        0 min,  0.017 sec
 * total energy  :   -68.6415284 Eh     change       -0.4402491E-04 Eh
   gradient norm :     0.0021957 Eh/α   predicted    -0.2968953E-04 ( -32.56%)
   displ. norm   :     0.1528485 α      lambda       -0.4791383E-04
   maximum displ.:     0.0944881 α      in ANC's #7, #3, #19, ...

........................................................................
.............................. CYCLE   14 ..............................
........................................................................

 iter      E             dE          RMSdq      gap      omega  full diag
   1    -69.5038591 -0.695039E+02  0.363E-02    3.96       0.0  T
   2    -69.5038595 -0.436556E-06  0.216E-02    3.96       1.0  T
   3    -69.5038592  0.320977E-06  0.342E-03    3.96       4.3  T
   4    -69.5038597 -0.455041E-06  0.934E-04    3.96      15.8  T
   5    -69.5038597 -0.117220E-07  0.474E-04    3.96      31.1  T
     SCC iter.                  ...        0 min,  0.008 sec
     gradient                   ...        0 min,  0.017 sec
 * total energy  :   -68.6415645 Eh     change       -0.3614174E-04 Eh
   gradient norm :     0.0023401 Eh/α   predicted    -0.2451955E-04 ( -32.16%)
   displ. norm   :     0.1639641 α      lambda       -0.4444104E-04
   maximum displ.:     0.1021207 α      in ANC's #7, #3, #19, ...

........................................................................
.............................. CYCLE   15 ..............................
........................................................................

 iter      E             dE          RMSdq      gap      omega  full diag
   1    -69.5038005 -0.695038E+02  0.388E-02    3.96       0.0  T
   2    -69.5038011 -0.614559E-06  0.231E-02    3.96       1.0  T
   3    -69.5038008  0.267550E-06  0.391E-03    3.96       3.8  T
   4    -69.5038013 -0.435415E-06  0.113E-03    3.96      13.0  T
   5    -69.5038013 -0.142368E-07  0.561E-04    3.96      26.3  T
   6    -69.5038013 -0.136384E-08  0.148E-04    3.96      99.9  T
     SCC iter.                  ...        0 min,  0.010 sec
     gradient                   ...        0 min,  0.017 sec
 * total energy  :   -68.6415980 Eh     change       -0.3346893E-04 Eh
   gradient norm :     0.0023856 Eh/α   predicted    -0.2282158E-04 ( -31.81%)
   displ. norm   :     0.1857982 α      lambda       -0.4715364E-04
   maximum displ.:     0.1137635 α      in ANC's #7, #3, #10, ...

........................................................................
.............................. CYCLE   16 ..............................
........................................................................

 iter      E             dE          RMSdq      gap      omega  full diag
   1    -69.5037985 -0.695038E+02  0.441E-02    3.96       0.0  T
   2    -69.5037994 -0.896847E-06  0.262E-02    3.96       1.0  T
   3    -69.5037990  0.458911E-06  0.508E-03    3.96       2.9  T
   4    -69.5037997 -0.709574E-06  0.136E-03    3.96      10.8  T
   5    -69.5037997 -0.201270E-07  0.669E-04    3.96      22.0  T
   6    -69.5037997 -0.165844E-08  0.186E-04    3.96      79.3  T
     SCC iter.                  ...        0 min,  0.010 sec
     gradient                   ...        0 min,  0.017 sec
 * total energy  :   -68.6416332 Eh     change       -0.3522823E-04 Eh
   gradient norm :     0.0023378 Eh/α   predicted    -0.2439306E-04 ( -30.76%)
   displ. norm   :     0.1884392 α      lambda       -0.5192091E-04
   maximum displ.:     0.1080031 α      in ANC's #7, #3, #10, ...

........................................................................
.............................. CYCLE   17 ..............................
........................................................................

 iter      E             dE          RMSdq      gap      omega  full diag
   1    -69.5040405 -0.695040E+02  0.448E-02    3.95       0.0  T
   2    -69.5040413 -0.799318E-06  0.267E-02    3.95       1.0  T
   3    -69.5040407  0.652565E-06  0.550E-03    3.95       2.7  T
   4    -69.5040416 -0.942880E-06  0.134E-03    3.95      11.0  T
   5    -69.5040416 -0.134819E-07  0.655E-04    3.95      22.5  T
   6    -69.5040416 -0.212013E-08  0.205E-04    3.95      71.8  T
     SCC iter.                  ...        0 min,  0.010 sec
     gradient                   ...        0 min,  0.017 sec
 * total energy  :   -68.6416724 Eh     change       -0.3916024E-04 Eh
   gradient norm :     0.0022461 Eh/α   predicted    -0.2688738E-04 ( -31.34%)
   displ. norm   :     0.2071041 α      lambda       -0.5666679E-04
   maximum displ.:     0.1083851 α      in ANC's #7, #3, #10, ...

........................................................................
.............................. CYCLE   18 ..............................
........................................................................

 iter      E             dE          RMSdq      gap      omega  full diag
   1    -69.5038818 -0.695039E+02  0.501E-02    3.95       0.0  T
   2    -69.5038826 -0.738155E-06  0.300E-02    3.95       1.0  T
   3    -69.5038819  0.687356E-06  0.541E-03    3.95       2.7  T
   4    -69.5038829 -0.101287E-05  0.137E-03    3.95      10.7  T
   5    -69.5038829 -0.884141E-08  0.645E-04    3.95      22.9  T
   6    -69.5038829 -0.277691E-08  0.206E-04    3.95      71.6  T
     SCC iter.                  ...        0 min,  0.010 sec
     gradient                   ...        0 min,  0.017 sec
 * total energy  :   -68.6417143 Eh     change       -0.4194283E-04 Eh
   gradient norm :     0.0027293 Eh/α   predicted    -0.2955370E-04 ( -29.54%)
   displ. norm   :     0.1817352 α      lambda       -0.6581724E-04
   maximum displ.:     0.0742522 α      in ANC's #4, #7, #19, ...

........................................................................
.............................. CYCLE   19 ..............................
........................................................................

 iter      E             dE          RMSdq      gap      omega  full diag
   1    -69.5052350 -0.695052E+02  0.432E-02    3.95       0.0  T
   2    -69.5052357 -0.735072E-06  0.260E-02    3.95       1.0  T
   3    -69.5052351  0.619537E-06  0.493E-03    3.95       3.0  T
   4    -69.5052360 -0.880942E-06  0.129E-03    3.95      11.4  T
   5    -69.5052360 -0.166407E-07  0.652E-04    3.95      22.6  T
   6    -69.5052360 -0.163810E-08  0.214E-04    3.95      69.0  T
     SCC iter.                  ...        0 min,  0.010 sec
     gradient                   ...        0 min,  0.017 sec
 * total energy  :   -68.6417537 Eh     change       -0.3941707E-04 Eh
   gradient norm :     0.0033625 Eh/α   predicted    -0.3399833E-04 ( -13.75%)
   displ. norm   :     0.3678281 α      lambda       -0.8530125E-04
   maximum displ.:     0.1827100 α      in ANC's #7, #3, #10, ...

........................................................................
.............................. CYCLE   20 ..............................
........................................................................

 iter      E             dE          RMSdq      gap      omega  full diag
   1    -69.5012374 -0.695012E+02  0.941E-02    3.95       0.0  T
   2    -69.5012394 -0.202939E-05  0.567E-02    3.95       1.0  T
   3    -69.5012395 -0.877936E-07  0.505E-03    3.95       2.9  T
   4    -69.5012402 -0.666400E-06  0.241E-03    3.95       6.1  T
   5    -69.5012402 -0.660747E-07  0.119E-03    3.95      12.4  T
   6    -69.5012402 -0.982367E-08  0.288E-04    3.95      51.1  T
   7    -69.5012402 -0.115526E-08  0.129E-04    3.95     114.1  T
     SCC iter.                  ...        0 min,  0.011 sec
     gradient                   ...        0 min,  0.017 sec
 * total energy  :   -68.6417506 Eh     change        0.3155719E-05 Eh
   gradient norm :     0.0078664 Eh/α   predicted    -0.4843179E-04 (*******%)
   displ. norm   :     0.1612996 α      lambda       -0.1482966E-03
   maximum displ.:     0.0947119 α      in ANC's #7, #3, #19, ...
 * RMSD in coord.:     0.4674745 α      energy gain  -0.1359848E-01 Eh

generating ANC from exact Hessian ...
Using Lindh-Hessian (1995)
 Shifting diagonal of input Hessian by    9.8334753890646776E-003
 Lowest  eigenvalues of input Hessian
    0.000000    0.000000    0.000000    0.000000    0.000000    0.000000
    0.010000    0.010083    0.010259    0.010631    0.011006    0.011383
    0.012018    0.013235    0.013573    0.013764    0.014498    0.014981
 Highest eigenvalues
    1.879946    1.905066    2.073485    2.129271    2.294452    2.313701


........................................................................
.............................. CYCLE   21 ..............................
........................................................................

 iter      E             dE          RMSdq      gap      omega  full diag
   1    -69.5046695 -0.695047E+02  0.426E-02    3.95       0.0  T
   2    -69.5046710 -0.153114E-05  0.253E-02    3.95       1.0  T
   3    -69.5046706  0.372443E-06  0.439E-03    3.95       3.4  T
   4    -69.5046712 -0.582027E-06  0.175E-03    3.95       8.4  T
   5    -69.5046713 -0.947513E-07  0.771E-04    3.95      19.1  T
   6    -69.5046713 -0.238386E-08  0.269E-04    3.95      54.8  T
     SCC iter.                  ...        0 min,  0.010 sec
     gradient                   ...        0 min,  0.017 sec
 * total energy  :   -68.6418248 Eh     change       -0.7419842E-04 Eh
   gradient norm :     0.0029440 Eh/α   predicted     0.0000000E+00 (-100.00%)
   displ. norm   :     0.0374060 α      lambda       -0.3656177E-04
   maximum displ.:     0.0154874 α      in ANC's #18, #10, #15, ...

........................................................................
.............................. CYCLE   22 ..............................
........................................................................

 iter      E             dE          RMSdq      gap      omega  full diag
   1    -69.5047061 -0.695047E+02  0.109E-02    3.95       0.0  T
   2    -69.5047062 -0.809797E-07  0.645E-03    3.95       2.3  T
   3    -69.5047061  0.440202E-07  0.128E-03    3.95      11.5  T
   4    -69.5047062 -0.625983E-07  0.331E-04    3.95      44.5  T
   5    -69.5047062 -0.213784E-08  0.175E-04    3.95      84.1  T
     SCC iter.                  ...        0 min,  0.008 sec
     gradient                   ...        0 min,  0.017 sec
 * total energy  :   -68.6418549 Eh     change       -0.3007224E-04 Eh
   gradient norm :     0.0015179 Eh/α   predicted    -0.1836543E-04 ( -38.93%)
   displ. norm   :     0.1680920 α      lambda       -0.6824191E-04
   maximum displ.:     0.0775286 α      in ANC's #18, #10, #4, ...

........................................................................
.............................. CYCLE   23 ..............................
........................................................................

 iter      E             dE          RMSdq      gap      omega  full diag
   1    -69.5044908 -0.695045E+02  0.429E-02    3.94       0.0  T
   2    -69.5044916 -0.830378E-06  0.254E-02    3.95       1.0  T
   3    -69.5044909  0.689011E-06  0.452E-03    3.94       3.3  T
   4    -69.5044918 -0.914458E-06  0.117E-03    3.95      12.6  T
   5    -69.5044919 -0.284019E-07  0.611E-04    3.94      24.1  T
   6    -69.5044919 -0.202382E-08  0.218E-04    3.94      67.6  T
     SCC iter.                  ...        0 min,  0.010 sec
     gradient                   ...        0 min,  0.017 sec
 * total energy  :   -68.6419037 Eh     change       -0.4885658E-04 Eh
   gradient norm :     0.0034408 Eh/α   predicted    -0.3455017E-04 ( -29.28%)
   displ. norm   :     0.0429984 α      lambda       -0.2450957E-04
   maximum displ.:     0.0232922 α      in ANC's #18, #10, #4, ...

........................................................................
.............................. CYCLE   24 ..............................
........................................................................

 iter      E             dE          RMSdq      gap      omega  full diag
   1    -69.5046154 -0.695046E+02  0.966E-03    3.94       0.0  T
   2    -69.5046154 -0.326653E-07  0.582E-03    3.94       2.5  T
   3    -69.5046154  0.435343E-07  0.119E-03    3.94      12.4  T
   4    -69.5046154 -0.575539E-07  0.263E-04    3.94      56.0  T
   5    -69.5046154 -0.460673E-09  0.140E-04    3.94     105.4  T
     SCC iter.                  ...        0 min,  0.008 sec
     gradient                   ...        0 min,  0.017 sec
 * total energy  :   -68.6419264 Eh     change       -0.2271769E-04 Eh
   gradient norm :     0.0027522 Eh/α   predicted    -0.1227860E-04 ( -45.95%)
   displ. norm   :     0.3110821 α      lambda       -0.1482409E-03
   maximum displ.:     0.1748882 α      in ANC's #18, #4, #10, ...

........................................................................
.............................. CYCLE   25 ..............................
........................................................................

 iter      E             dE          RMSdq      gap      omega  full diag
   1    -69.5039228 -0.695039E+02  0.682E-02    3.94       0.0  T
   2    -69.5039240 -0.118333E-05  0.412E-02    3.94       1.0  T
   3    -69.5039228  0.116884E-05  0.700E-03    3.94       2.1  T
   4    -69.5039246 -0.172794E-05  0.174E-03    3.94       8.5  T
   5    -69.5039246 -0.881360E-08  0.848E-04    3.94      17.4  T
   6    -69.5039246 -0.818588E-08  0.243E-04    3.94      60.7  T
     SCC iter.                  ...        0 min,  0.010 sec
     gradient                   ...        0 min,  0.017 sec
 * total energy  :   -68.6420232 Eh     change       -0.9680258E-04 Eh
   gradient norm :     0.0032580 Eh/α   predicted    -0.8129384E-04 ( -16.02%)
   displ. norm   :     0.1805854 α      lambda       -0.5622516E-04
   maximum displ.:     0.1036532 α      in ANC's #18, #4, #10, ...

........................................................................
.............................. CYCLE   26 ..............................
........................................................................

 iter      E             dE          RMSdq      gap      omega  full diag
   1    -69.5036191 -0.695036E+02  0.386E-02    3.94       0.0  T
   2    -69.5036194 -0.362702E-06  0.233E-02    3.94       1.0  T
   3    -69.5036193  0.922718E-07  0.282E-03    3.94       5.2  T
   4    -69.5036196 -0.234947E-06  0.100E-03    3.94      14.7  T
   5    -69.5036196 -0.642896E-08  0.468E-04    3.94      31.5  T
   6    -69.5036196 -0.150932E-08  0.126E-04    3.94     116.9  T
     SCC iter.                  ...        0 min,  0.010 sec
     gradient                   ...        0 min,  0.017 sec
 * total energy  :   -68.6420666 Eh     change       -0.4339128E-04 Eh
   gradient norm :     0.0044327 Eh/α   predicted    -0.2903919E-04 ( -33.08%)
   displ. norm   :     0.2489379 α      lambda       -0.1133398E-03
   maximum displ.:     0.1389834 α      in ANC's #18, #4, #9, ...

........................................................................
.............................. CYCLE   27 ..............................
........................................................................

 iter      E             dE          RMSdq      gap      omega  full diag
   1    -69.5041699 -0.695042E+02  0.538E-02    3.94       0.0  T
   2    -69.5041706 -0.776576E-06  0.323E-02    3.94       1.0  T
   3    -69.5041703  0.375252E-06  0.401E-03    3.94       3.7  T
   4    -69.5041709 -0.670025E-06  0.152E-03    3.94       9.7  T
   5    -69.5041710 -0.271059E-07  0.725E-04    3.94      20.3  T
   6    -69.5041710 -0.597750E-08  0.166E-04    3.94      89.0  T
     SCC iter.                  ...        0 min,  0.010 sec
     gradient                   ...        0 min,  0.017 sec
 * total energy  :   -68.6421473 Eh     change       -0.8067753E-04 Eh
   gradient norm :     0.0046413 Eh/α   predicted    -0.6018297E-04 ( -25.40%)
   displ. norm   :     0.1839909 α      lambda       -0.9567572E-04
   maximum displ.:     0.0911570 α      in ANC's #18, #4, #9, ...

........................................................................
.............................. CYCLE   28 ..............................
........................................................................

 iter      E             dE          RMSdq      gap      omega  full diag
   1    -69.5050124 -0.695050E+02  0.412E-02    3.94       0.0  T
   2    -69.5050129 -0.492523E-06  0.246E-02    3.94       1.0  T
   3    -69.5050125  0.352545E-06  0.369E-03    3.94       4.0  T
   4    -69.5050130 -0.545960E-06  0.118E-03    3.94      12.5  T
   5    -69.5050131 -0.107516E-07  0.578E-04    3.94      25.5  T
   6    -69.5050131 -0.349388E-08  0.154E-04    3.94      95.8  T
     SCC iter.                  ...        0 min,  0.010 sec
     gradient                   ...        0 min,  0.017 sec
 * total energy  :   -68.6422197 Eh     change       -0.7235419E-04 Eh
   gradient norm :     0.0037303 Eh/α   predicted    -0.4945770E-04 ( -31.65%)
   displ. norm   :     0.3883808 α      lambda       -0.1247204E-03
   maximum displ.:     0.1988967 α      in ANC's #18, #4, #9, ...

........................................................................
.............................. CYCLE   29 ..............................
........................................................................

 iter      E             dE          RMSdq      gap      omega  full diag
   1    -69.5015981 -0.695016E+02  0.869E-02    3.94       0.0  T
   2    -69.5016015 -0.344873E-05  0.519E-02    3.94       1.0  T
   3    -69.5016009  0.604477E-06  0.630E-03    3.94       2.3  T
   4    -69.5016021 -0.118390E-05  0.263E-03    3.94       5.6  T
   5    -69.5016023 -0.168678E-06  0.131E-03    3.94      11.3  T
   6    -69.5016023 -0.772873E-08  0.346E-04    3.94      42.6  T
   7    -69.5016023 -0.316065E-08  0.110E-04    3.94     133.9  T
     SCC iter.                  ...        0 min,  0.011 sec
     gradient                   ...        0 min,  0.017 sec
 * total energy  :   -68.6422223 Eh     change       -0.2626657E-05 Eh
   gradient norm :     0.0097846 Eh/α   predicted    -0.7176716E-04 (2632.26%)
   displ. norm   :     0.1333309 α      lambda       -0.3223899E-03
   maximum displ.:     0.0836579 α      in ANC's #7, #8, #18, ...

........................................................................
.............................. CYCLE   30 ..............................
........................................................................

 iter      E             dE          RMSdq      gap      omega  full diag
   1    -69.5057217 -0.695057E+02  0.417E-02    3.94       0.0  T
   2    -69.5057260 -0.423318E-05  0.238E-02    3.94       1.0  T
   3    -69.5057259  0.191170E-07  0.630E-03    3.94       2.3  T
   4    -69.5057262 -0.314005E-06  0.197E-03    3.94       7.5  T
   5    -69.5057263 -0.984060E-07  0.914E-04    3.94      16.1  T
   6    -69.5057264 -0.545718E-08  0.336E-04    3.94      43.9  T
     SCC iter.                  ...        0 min,  0.010 sec
     gradient                   ...        0 min,  0.017 sec
 * total energy  :   -68.6423520 Eh     change       -0.1296850E-03 Eh
   gradient norm :     0.0048445 Eh/α   predicted    -0.1640611E-03 (  26.51%)
   displ. norm   :     0.1574086 α      lambda       -0.7499676E-04
   maximum displ.:     0.0692952 α      in ANC's #18, #4, #7, ...

........................................................................
.............................. CYCLE   31 ..............................
........................................................................

 iter      E             dE          RMSdq      gap      omega  full diag
   1    -69.5045676 -0.695046E+02  0.356E-02    3.94       0.0  T
   2    -69.5045681 -0.479971E-06  0.214E-02    3.94       1.0  T
   3    -69.5045681 -0.178335E-07  0.192E-03    3.94       7.7  T
   4    -69.5045682 -0.751086E-07  0.857E-04    3.94      17.2  T
   5    -69.5045682 -0.895777E-08  0.484E-04    3.94      30.5  T
     SCC iter.                  ...        0 min,  0.008 sec
     gradient                   ...        0 min,  0.017 sec
 * total energy  :   -68.6424142 Eh     change       -0.6218856E-04 Eh
   gradient norm :     0.0033783 Eh/α   predicted    -0.3843924E-04 ( -38.19%)
   displ. norm   :     0.3381403 α      lambda       -0.1358834E-03
   maximum displ.:     0.1459210 α      in ANC's #7, #18, #4, ...

........................................................................
.............................. CYCLE   32 ..............................
........................................................................

 iter      E             dE          RMSdq      gap      omega  full diag
   1    -69.5022098 -0.695022E+02  0.758E-02    3.95       0.0  T
   2    -69.5022123 -0.254536E-05  0.455E-02    3.95       1.0  T
   3    -69.5022123  0.314479E-07  0.480E-03    3.95       3.1  T
   4    -69.5022128 -0.495371E-06  0.180E-03    3.95       8.2  T
   5    -69.5022128 -0.280328E-07  0.102E-03    3.95      14.5  T
   6    -69.5022128 -0.532762E-08  0.323E-04    3.95      45.7  T
   7    -69.5022128 -0.123954E-08  0.114E-04    3.95     129.2  T
     SCC iter.                  ...        0 min,  0.011 sec
     gradient                   ...        0 min,  0.017 sec
 * total energy  :   -68.6424586 Eh     change       -0.4442082E-04 Eh
   gradient norm :     0.0073273 Eh/α   predicted    -0.7571082E-04 (  70.44%)
   displ. norm   :     0.1269836 α      lambda       -0.1184194E-03
   maximum displ.:     0.0596886 α      in ANC's #18, #9, #4, ...

........................................................................
.............................. CYCLE   33 ..............................
........................................................................

 iter      E             dE          RMSdq      gap      omega  full diag
   1    -69.5050355 -0.695050E+02  0.349E-02    3.94       0.0  T
   2    -69.5050371 -0.155940E-05  0.205E-02    3.94       1.0  T
   3    -69.5050363  0.765287E-06  0.602E-03    3.94       2.5  T
   4    -69.5050373 -0.103281E-05  0.151E-03    3.94       9.8  T
   5    -69.5050374 -0.549109E-07  0.648E-04    3.94      22.8  T
   6    -69.5050374 -0.572811E-09  0.285E-04    3.94      51.7  T
     SCC iter.                  ...        0 min,  0.010 sec
     gradient                   ...        0 min,  0.017 sec
 * total energy  :   -68.6425106 Eh     change       -0.5199660E-04 Eh
   gradient norm :     0.0036779 Eh/α   predicted    -0.6016661E-04 (  15.71%)
   displ. norm   :     0.0952980 α      lambda       -0.4850108E-04
   maximum displ.:     0.0535173 α      in ANC's #7, #5, #9, ...

........................................................................
.............................. CYCLE   34 ..............................
........................................................................

 iter      E             dE          RMSdq      gap      omega  full diag
   1    -69.5051202 -0.695051E+02  0.210E-02    3.94       0.0  T
   2    -69.5051204 -0.173724E-06  0.125E-02    3.94       1.2  T
   3    -69.5051202  0.180574E-06  0.258E-03    3.94       5.7  T
   4    -69.5051204 -0.242426E-06  0.555E-04    3.94      26.6  T
   5    -69.5051204 -0.225059E-08  0.290E-04    3.94      50.8  T
     SCC iter.                  ...        0 min,  0.008 sec
     gradient                   ...        0 min,  0.017 sec
 * total energy  :   -68.6425509 Eh     change       -0.4030070E-04 Eh
   gradient norm :     0.0019709 Eh/α   predicted    -0.2447338E-04 ( -39.27%)
   displ. norm   :     0.5472359 α      lambda       -0.1219161E-03
   maximum displ.:     0.2932713 α      in ANC's #7, #5, #18, ...

........................................................................
.............................. CYCLE   35 ..............................
........................................................................

 iter      E             dE          RMSdq      gap      omega  full diag
   1    -69.5015878 -0.695016E+02  0.117E-01    3.95       0.0  T
   2    -69.5015920 -0.418047E-05  0.703E-02    3.95       1.0  T
   3    -69.5015902  0.178782E-05  0.959E-03    3.94       1.5  T
   4    -69.5015931 -0.287233E-05  0.295E-03    3.95       5.0  T
   5    -69.5015932 -0.101415E-06  0.145E-03    3.95      10.1  T
   6    -69.5015932 -0.533296E-08  0.465E-04    3.95      31.7  T
   7    -69.5015932 -0.270688E-08  0.161E-04    3.95      91.8  T
     SCC iter.                  ...        0 min,  0.012 sec
     gradient                   ...        0 min,  0.017 sec
 * total energy  :   -68.6426084 Eh     change       -0.5748971E-04 Eh
   gradient norm :     0.0070529 Eh/α   predicted    -0.6905822E-04 (  20.12%)
   displ. norm   :     0.0861123 α      lambda       -0.1082678E-03
   maximum displ.:     0.0393564 α      in ANC's #18, #9, #4, ...

........................................................................
.............................. CYCLE   36 ..............................
........................................................................

 iter      E             dE          RMSdq      gap      omega  full diag
   1    -69.5043000 -0.695043E+02  0.243E-02    3.94       0.0  T
   2    -69.5043011 -0.105262E-05  0.142E-02    3.94       1.0  T
   3    -69.5043011  0.219876E-08  0.302E-03    3.94       4.9  T
   4    -69.5043012 -0.998699E-07  0.851E-04    3.94      17.3  T
   5    -69.5043012 -0.841540E-08  0.456E-04    3.94      32.4  T
     SCC iter.                  ...        0 min,  0.008 sec
     gradient                   ...        0 min,  0.017 sec
 * total energy  :   -68.6426658 Eh     change       -0.5745689E-04 Eh
   gradient norm :     0.0025317 Eh/α   predicted    -0.5454964E-04 (  -5.06%)
   displ. norm   :     0.0755767 α      lambda       -0.3068164E-04
   maximum displ.:     0.0367795 α      in ANC's #6, #19, #7, ...

........................................................................
.............................. CYCLE   37 ..............................
........................................................................

 iter      E             dE          RMSdq      gap      omega  full diag
   1    -69.5049045 -0.695049E+02  0.161E-02    3.95       0.0  T
   2    -69.5049047 -0.168809E-06  0.970E-03    3.95       1.5  T
   3    -69.5049045  0.189065E-06  0.239E-03    3.95       6.2  T
   4    -69.5049047 -0.238290E-06  0.447E-04    3.95      33.0  T
   5    -69.5049047 -0.433477E-08  0.239E-04    3.95      61.8  T
     SCC iter.                  ...        0 min,  0.008 sec
     gradient                   ...        0 min,  0.017 sec
 * total energy  :   -68.6426913 Eh     change       -0.2543717E-04 Eh
   gradient norm :     0.0013253 Eh/α   predicted    -0.1541701E-04 ( -39.39%)
   displ. norm   :     0.3832993 α      lambda       -0.7015184E-04
   maximum displ.:     0.2003755 α      in ANC's #6, #7, #19, ...

........................................................................
.............................. CYCLE   38 ..............................
........................................................................

 iter      E             dE          RMSdq      gap      omega  full diag
   1    -69.5043894 -0.695044E+02  0.785E-02    3.95       0.0  T
   2    -69.5043921 -0.270129E-05  0.472E-02    3.95       1.0  T
   3    -69.5043888  0.329177E-05  0.981E-03    3.95       1.5  T
   4    -69.5043929 -0.409436E-05  0.210E-03    3.95       7.0  T
   5    -69.5043930 -0.914156E-07  0.103E-03    3.95      14.3  T
   6    -69.5043930 -0.652621E-08  0.384E-04    3.95      38.4  T
   7    -69.5043930 -0.157645E-08  0.124E-04    3.95     118.7  T
     SCC iter.                  ...        0 min,  0.011 sec
     gradient                   ...        0 min,  0.017 sec
 * total energy  :   -68.6427369 Eh     change       -0.4566656E-04 Eh
   gradient norm :     0.0045620 Eh/α   predicted    -0.3720942E-04 ( -18.52%)
   displ. norm   :     0.0373499 α      lambda       -0.3128566E-04
   maximum displ.:     0.0304991 α      in ANC's #6, #15, #18, ...

........................................................................
.............................. CYCLE   39 ..............................
........................................................................

 iter      E             dE          RMSdq      gap      omega  full diag
   1    -69.5051664 -0.695052E+02  0.832E-03    3.95       0.0  T
   2    -69.5051666 -0.155606E-06  0.479E-03    3.95       3.1  T
   3    -69.5051666  0.100710E-07  0.130E-03    3.95      11.4  T
   4    -69.5051666 -0.213393E-07  0.440E-04    3.95      33.5  T
   5    -69.5051666 -0.685277E-08  0.183E-04    3.95      80.6  T
     SCC iter.                  ...        0 min,  0.008 sec
     gradient                   ...        0 min,  0.017 sec
 * total energy  :   -68.6427603 Eh     change       -0.2339793E-04 Eh
   gradient norm :     0.0025526 Eh/α   predicted    -0.1572712E-04 ( -32.78%)
   displ. norm   :     0.1343252 α      lambda       -0.4065239E-04
   maximum displ.:     0.0985538 α      in ANC's #6, #19, #1, ...

........................................................................
.............................. CYCLE   40 ..............................
........................................................................

 iter      E             dE          RMSdq      gap      omega  full diag
   1    -69.5051673 -0.695052E+02  0.247E-02    3.95       0.0  T
   2    -69.5051677 -0.415826E-06  0.147E-02    3.95       1.0  T
   3    -69.5051676  0.128839E-06  0.256E-03    3.95       5.8  T
   4    -69.5051678 -0.195490E-06  0.747E-04    3.95      19.7  T
   5    -69.5051678 -0.139767E-07  0.373E-04    3.95      39.6  T
     SCC iter.                  ...        0 min,  0.008 sec
     gradient                   ...        0 min,  0.017 sec
 * total energy  :   -68.6427889 Eh     change       -0.2862084E-04 Eh
   gradient norm :     0.0013864 Eh/α   predicted    -0.2094869E-04 ( -26.81%)
   displ. norm   :     0.2323374 α      lambda       -0.2618460E-04
   maximum displ.:     0.1656328 α      in ANC's #6, #1, #9, ...

........................................................................
.............................. CYCLE   41 ..............................
........................................................................

 iter      E             dE          RMSdq      gap      omega  full diag
   1    -69.5048620 -0.695049E+02  0.419E-02    3.95       0.0  T
   2    -69.5048629 -0.971454E-06  0.250E-02    3.95       1.0  T
   3    -69.5048628  0.159913E-06  0.362E-03    3.95       4.1  T
   4    -69.5048631 -0.330558E-06  0.114E-03    3.95      13.0  T
   5    -69.5048631 -0.160681E-07  0.599E-04    3.95      24.6  T
   6    -69.5048631 -0.290015E-08  0.146E-04    3.95     101.3  T
     SCC iter.                  ...        0 min,  0.010 sec
     gradient                   ...        0 min,  0.017 sec
 * total energy  :   -68.6428087 Eh     change       -0.1975471E-04 Eh
   gradient norm :     0.0021506 Eh/α   predicted    -0.1362448E-04 ( -31.03%)
   displ. norm   :     0.0357547 α      lambda       -0.8076901E-05
   maximum displ.:     0.0195805 α      in ANC's #6, #9, #1, ...

........................................................................
.............................. CYCLE   42 ..............................
........................................................................

 iter      E             dE          RMSdq      gap      omega  full diag
   1    -69.5049988 -0.695050E+02  0.835E-03    3.95       0.0  T
   2    -69.5049989 -0.558579E-07  0.503E-03    3.95       2.9  T
   3    -69.5049988  0.397041E-07  0.117E-03    3.95      12.6  T
   4    -69.5049989 -0.540936E-07  0.314E-04    3.95      46.9  T
   5    -69.5049989 -0.168738E-08  0.159E-04    3.95      92.9  T
     SCC iter.                  ...        0 min,  0.008 sec
     gradient                   ...        0 min,  0.017 sec
 * total energy  :   -68.6428144 Eh     change       -0.5681610E-05 Eh
   gradient norm :     0.0013489 Eh/α   predicted    -0.4007215E-05 ( -29.47%)
   displ. norm   :     0.0962231 α      lambda       -0.1112440E-04
   maximum displ.:     0.0465421 α      in ANC's #6, #1, #4, ...
 * RMSD in coord.:     0.4513193 α      energy gain  -0.1063794E-02 Eh

generating ANC from exact Hessian ...
Using Lindh-Hessian (1995)
 Shifting diagonal of input Hessian by    9.8355464254201962E-003
 Lowest  eigenvalues of input Hessian
    0.000000    0.000000    0.000000    0.000000    0.000000    0.000000
    0.010000    0.010086    0.010276    0.010645    0.011046    0.011328
    0.012166    0.013058    0.013534    0.013851    0.014164    0.015136
 Highest eigenvalues
    1.876383    1.905254    2.071952    2.130262    2.295568    2.316414


........................................................................
.............................. CYCLE   43 ..............................
........................................................................

 iter      E             dE          RMSdq      gap      omega  full diag
   1    -69.5059129 -0.695059E+02  0.187E-02    3.95       0.0  T
   2    -69.5059132 -0.276056E-06  0.111E-02    3.95       1.3  T
   3    -69.5059131  0.104819E-06  0.229E-03    3.95       6.4  T
   4    -69.5059132 -0.169074E-06  0.537E-04    3.95      27.4  T
   5    -69.5059132 -0.111251E-08  0.299E-04    3.95      49.2  T
     SCC iter.                  ...        0 min,  0.008 sec
     gradient                   ...        0 min,  0.017 sec
 * total energy  :   -68.6428206 Eh     change       -0.6228538E-05 Eh
   gradient norm :     0.0016444 Eh/α   predicted     0.0000000E+00 (-100.00%)
   displ. norm   :     0.0185513 α      lambda       -0.6344359E-05
   maximum displ.:     0.0083708 α      in ANC's #1, #4, #2, ...

........................................................................
.............................. CYCLE   44 ..............................
........................................................................

 iter      E             dE          RMSdq      gap      omega  full diag
   1    -69.5055286 -0.695055E+02  0.581E-03    3.95       0.0  T
   2    -69.5055287 -0.114623E-06  0.350E-03    3.95       4.2  T
   3    -69.5055287  0.162516E-07  0.133E-03    3.95      11.1  T
   4    -69.5055287 -0.371988E-07  0.289E-04    3.95      51.1  T
   5    -69.5055287 -0.159383E-08  0.150E-04    3.95      98.6  T
     SCC iter.                  ...        0 min,  0.008 sec
     gradient                   ...        0 min,  0.017 sec
 * total energy  :   -68.6428258 Eh     change       -0.5149795E-05 Eh
   gradient norm :     0.0005860 Eh/α   predicted    -0.3264575E-05 ( -36.61%)
   displ. norm   :     0.0217353 α      lambda       -0.2086984E-05
   maximum displ.:     0.0109030 α      in ANC's #1, #4, #2, ...

........................................................................
.............................. CYCLE   45 ..............................
........................................................................

 iter      E             dE          RMSdq      gap      omega  full diag
   1    -69.5055652 -0.695056E+02  0.360E-03    3.95       0.0  T
   2    -69.5055652 -0.681500E-08  0.214E-03    3.95       6.9  T
   3    -69.5055652  0.459900E-08  0.413E-04    3.95      35.7  T
   4    -69.5055652 -0.650056E-08  0.110E-04    3.95     134.1  T
     SCC iter.                  ...        0 min,  0.007 sec
     gradient                   ...        0 min,  0.017 sec
 * total energy  :   -68.6428285 Eh     change       -0.2731076E-05 Eh
   gradient norm :     0.0004665 Eh/α   predicted    -0.1044461E-05 ( -61.76%)
   displ. norm   :     0.0770762 α      lambda       -0.6028732E-05
   maximum displ.:     0.0377986 α      in ANC's #1, #4, #5, ...

   *** GEOMETRY OPTIMIZATION CONVERGED AFTER 45 ITERATIONS ***

------------------------------------------------------------------------
 total energy gain   :        -0.0146764 Eh       -9.2096 kcal/mol
 total RMSD          :         0.7724151 a0        0.4087 Å
 total power (kW/mol):        -0.8562851 (step)  -25.4157 (real)
------------------------------------------------------------------------

 ANCopt (total)                0 d,  0 h,  0 min,  1.516 sec
 optimizer setup                ...        0 min,  0.000 sec (  0.016%)
 model hessian                  ...        0 min,  0.035 sec (  2.282%)
 ANC generation                 ...        0 min,  0.004 sec (  0.284%)
 coordinate transformation      ...        0 min,  0.000 sec (  0.024%)
 single point calculation       ...        0 min,  1.467 sec ( 96.776%)
 optimization log               ...        0 min,  0.005 sec (  0.310%)
 hessian update                 ...        0 min,  0.001 sec (  0.035%)
 rational function              ...        0 min,  0.003 sec (  0.194%)

================
 final structure:
================
46
 xtb: 6.7.1 (edcfbbe)
C            2.97898808929740       -1.85804378651776        1.38331624864683
C            3.43164195772675       -0.62658827777097        0.63218573701558
O            4.03941085958312       -0.70076476176636       -0.42017258441303
N            3.17612523388062        0.57826425471054        1.20741025760136
C            2.45157429501447        0.78011251741037        2.43941810931500
C            0.92854774225544        0.91096891671067        2.25750887249617
C            0.29209714902581        1.29755093613970        3.55869520668200
C           -0.22528453012447        0.34891779863216        4.42423320743910
C           -0.77471787985396        0.72978826928552        5.63597454745614
C           -0.82134257615073        2.06076746223933        6.02988969748627
O           -1.34173761950640        2.46910213559301        7.23641642745796
C           -1.90878924918023        1.50569247107422        8.08621267690680
C           -0.30517626118525        3.03596801981784        5.15642306618599
O           -0.24903366166394        4.38448310479881        5.36126725588183
C           -0.98507346898316        4.99874721723926        6.39430320477237
C            0.24157704456737        2.62745787935016        3.94499914707096
C            3.55627482592528        1.73585129731461        0.42694052711732
C            2.55089247398130        2.00578170306026       -0.69930819427112
O            1.43844149482546        1.51649355749373       -0.69637521376676
N            2.97293735723076        2.84468314365971       -1.67124107330473
C            4.30256738697171        3.40260850214242       -1.73832146416815
C            2.12411386012658        3.06745587618952       -2.82104191729770
H            3.21769250836470       -2.72762881218849        0.77701341730827
H            1.90836795429051       -1.83030530628759        1.56306455301097
H            3.50018936226125       -1.93901380082552        2.33528133676238
H            2.82646578281741        1.69875183221499        2.90302485943818
H            2.66532517786239       -0.04252921845319        3.12480436176762
H            0.52136889000108       -0.03502005549869        1.90122223504484
H            0.72757025930290        1.66238537314763        1.49516447295308
H           -0.20993159526944       -0.69726720322678        4.15788111482784
H           -1.16836088173048       -0.03539986578489        6.28550240403870
H           -2.27547454771317        2.06072591832526        8.94878786992148
H           -1.16740485513583        0.77213197229371        8.41957563768038
H           -2.74647891839610        0.98703840303245        7.60889999674977
H           -0.86268382006472        6.06971888444147        6.23061201207347
H           -0.60041962265661        4.73494208376382        7.38158794216181
H           -2.04561937978392        4.74291523725970        6.34039063862362
H            0.62441304102631        3.40046806287901        3.29647398350762
H            4.53540398611298        1.52646968442108       -0.01283249759177
H            3.62089192937134        2.60985811393757        1.07935311357403
H            4.59794983290168        3.83086409607794       -0.78065110733620
H            4.30589144684830        4.19760348052279       -2.48193435361917
H            5.03979395920961        2.64994700095130       -2.03364193433145
H            1.18406575434202        2.54729422821509       -2.64897440111052
H            2.59302856735749        2.67365769709590       -3.72527054166556
H            1.93122064491541        4.13469395687189       -2.94896885609844

 Bond Distances (Angstroems)
 ---------------------------
C1-C2=1.5118         C1-H23=1.0866        C1-H24=1.0860        C1-H25=1.0883        C2-C1=1.5118         C2-O3=1.2175         
C2-N4=1.3594         O3-C2=1.2175         N4-C2=1.3594         N4-C5=1.4435         N4-C17=1.4469        C5-N4=1.4435         
C5-C6=1.5394         C5-H26=1.0952        C5-H27=1.0919        C6-C5=1.5394         C6-C7=1.4992         C6-H28=1.0898        
C6-H29=1.0891        C7-C6=1.4992         C7-C8=1.3845         C7-C16=1.3858        C8-C7=1.3845         C8-C9=1.3839         
C8-H30=1.0797        C9-C8=1.3839         C9-C10=1.3888        C9-H31=1.0781        C10-C9=1.3888        C10-O11=1.3760       
C10-C13=1.4073       O11-C10=1.3760       O11-C12=1.4042       C12-O11=1.4042       C12-H32=1.0893       C12-H33=1.0949       
C12-H34=1.0948       C13-C10=1.4073       C13-O14=1.3651       C13-C16=1.3905       O14-C13=1.3651       O14-C15=1.4093       
C15-O14=1.4093       C15-H35=1.0903       C15-H36=1.0919       C15-H37=1.0923       C16-C7=1.3858        C16-C13=1.3905       
C16-H38=1.0792       C17-N4=1.4469        C17-C18=1.5337       C17-H39=1.0936       C17-H40=1.0926       C18-C17=1.5337       
C18-O19=1.2153       C18-N20=1.3515       O19-C18=1.2153       N20-C18=1.3515       N20-C21=1.4435       N20-C22=1.4464       
C21-N20=1.4435       C21-H41=1.0899       C21-H42=1.0886       C21-H43=1.0942       C22-N20=1.4464       C22-H44=1.0881       
C22-H45=1.0921       C22-H46=1.0920       H23-C1=1.0866        H24-C1=1.0860        H25-C1=1.0883        H26-C5=1.0952        
H27-C5=1.0919        H28-C6=1.0898        H29-C6=1.0891        H30-C8=1.0797        H31-C9=1.0781        H32-C12=1.0893       
H33-C12=1.0949       H34-C12=1.0948       H35-C15=1.0903       H36-C15=1.0919       H37-C15=1.0923       H38-C16=1.0792       
H39-C17=1.0936       H40-C17=1.0926       H41-C21=1.0899       H42-C21=1.0886       H43-C21=1.0942       H44-C22=1.0881       
H45-C22=1.0921       H46-C22=1.0920       
 C  H  Rav=1.0895 sigma=0.0047  Rmin=1.0781  Rmax=1.0952    24
 C  C  Rav=1.4425 sigma=0.0652  Rmin=1.3839  Rmax=1.5394    10
 N  C  Rav=1.4152 sigma=0.0423  Rmin=1.3515  Rmax=1.4469     6
 O  C  Rav=1.3312 sigma=0.0826  Rmin=1.2153  Rmax=1.4093     6

 selected bond angles (degree)
 --------------------
H23-C1-C2=107.99               H24-C1-C2=110.89               H24-C1-H23=109.23              H25-C1-C2=110.60               
H25-C1-H23=108.86              H25-C1-H24=109.22              O3-C2-C1=121.96                N4-C2-C1=117.09                
N4-C2-O3=120.90                C5-N4-C2=125.41                C17-N4-C2=115.56               C17-N4-C5=118.71               
C6-C5-N4=114.06                H26-C5-N4=107.87               H26-C5-C6=108.51               H27-C5-N4=109.40               
H27-C5-C6=109.38               H27-C5-H26=107.41              C7-C6-C5=109.84                H28-C6-C5=109.54               
H28-C6-C7=110.42               H29-C6-C5=108.90               H29-C6-C7=110.56               H29-C6-H28=107.52              
C8-C7-C6=121.64                C16-C7-C6=120.32               C16-C7-C8=118.01               C9-C8-C7=120.48                
H30-C8-C7=120.29               H30-C8-C9=119.23               C10-C9-C8=121.70               H31-C9-C8=118.50               
H31-C9-C10=119.80              O11-C10-C9=123.08              C13-C10-C9=118.41              C13-C10-O11=118.51             

 selected dihedral angles (degree)
 ---------------------------------
O3-C2-C1-H23=355.23           O3-C2-C1-H24=235.58           O3-C2-C1-H25=114.25           N4-C2-C1-H23=177.67           
N4-C2-C1-H24= 58.03           N4-C2-C1-H25=296.70           C5-N4-C2-C1=356.72            C5-N4-C2-O3=179.13            
C17-N4-C2-C1=183.29           C17-N4-C2-O3=  5.71           C6-C5-N4-C2=271.92            C6-C5-N4-C17= 85.16           
H26-C5-N4-C2=151.32           H26-C5-N4-C17=324.55          H27-C5-N4-C2= 34.77           H27-C5-N4-C17=208.01          
C7-C6-C5-N4=187.50            C7-C6-C5-H26=307.75           C7-C6-C5-H27= 64.64           H28-C6-C5-N4= 66.06           
H28-C6-C5-H26=186.30          H28-C6-C5-H27=303.19          H29-C6-C5-N4=308.72           H29-C6-C5-H26= 68.96          
H29-C6-C5-H27=185.85          C8-C7-C6-C5=265.73            C8-C7-C6-H28= 26.65           C8-C7-C6-H29=145.52           
C16-C7-C6-C5= 83.88           C16-C7-C6-H28=204.79          C16-C7-C6-H29=323.67          C9-C8-C7-C6=178.22            
C9-C8-C7-C16=  0.04           H30-C8-C7-C6=357.84           H30-C8-C7-C16=179.66          C10-C9-C8-C7=359.63           
C10-C9-C8-H30=180.01          H31-C9-C8-C7=180.00           H31-C9-C8-H30=  0.38          O11-C10-C9-C8=181.04          
O11-C10-C9-H31=  0.67         C13-C10-C9-C8=  0.68          C13-C10-C9-H31=180.31         
           -------------------------------------------------
          |                Final Singlepoint                |
           -------------------------------------------------

          ...................................................
          :                      SETUP                      :
          :.................................................:
          :  # basis functions                 112          :
          :  # atomic orbitals                 112          :
          :  # shells                           68          :
          :  # electrons                       122          :
          :  max. iterations                   250          :
          :  Hamiltonian                  GFN2-xTB          :
          :  restarted?                      false          :
          :  GBSA solvation                  false          :
          :  PC potential                    false          :
          :  electronic temp.          300.0000000     K    :
          :  accuracy                    1.0000000          :
          :  -> integral cutoff          0.2500000E+02      :
          :  -> integral neglect         0.1000000E-07      :
          :  -> SCF convergence          0.1000000E-05 Eh   :
          :  -> wf. convergence          0.1000000E-03 e    :
          :  Broyden damping             0.4000000          :
          :  net charge                          0          :
          :  unpaired electrons                  0          :
          ...................................................

 iter      E             dE          RMSdq      gap      omega  full diag
   1    -69.5055652 -0.695056E+02  0.527E-05    3.95       0.0  T
   2    -69.5055652 -0.190568E-10  0.318E-05    3.95     464.0  T
   3    -69.5055652 -0.655120E-11  0.195E-05    3.95     757.7  T

   *** convergence criteria satisfied after 3 iterations ***

         #    Occupation            Energy/Eh            Energy/eV
      -------------------------------------------------------------
         1        2.0000           -0.7162053             -19.4889
       ...           ...                  ...                  ...
        55        2.0000           -0.4196681             -11.4198
        56        2.0000           -0.4022676             -10.9463
        57        2.0000           -0.3889465             -10.5838
        58        2.0000           -0.3861399             -10.5074
        59        2.0000           -0.3806338             -10.3576
        60        2.0000           -0.3722657             -10.1299
        61        2.0000           -0.3614919              -9.8367 (HOMO)
        62                         -0.2163142              -5.8862 (LUMO)
        63                         -0.2099402              -5.7128
        64                         -0.2016454              -5.4871
        65                         -0.1916059              -5.2139
        66                         -0.0875719              -2.3830
       ...                                ...                  ...
       112                          0.6565791              17.8664
      -------------------------------------------------------------
                  HL-Gap            0.1451778 Eh            3.9505 eV
             Fermi-level           -0.2889030 Eh           -7.8615 eV

 SCC (total)                   0 d,  0 h,  0 min,  0.028 sec
 SCC setup                      ...        0 min,  0.000 sec (  0.568%)
 Dispersion                     ...        0 min,  0.000 sec (  0.875%)
 classical contributions        ...        0 min,  0.000 sec (  0.419%)
 integral evaluation            ...        0 min,  0.005 sec ( 18.715%)
 iterations                     ...        0 min,  0.005 sec ( 17.724%)
 molecular gradient             ...        0 min,  0.017 sec ( 61.268%)
 printout                       ...        0 min,  0.000 sec (  0.397%)

         :::::::::::::::::::::::::::::::::::::::::::::::::::::
         ::                     SUMMARY                     ::
         :::::::::::::::::::::::::::::::::::::::::::::::::::::
         :: total energy             -68.642828486778 Eh    ::
         :: gradient norm              0.000466360704 Eh/a0 ::
         :: HOMO-LUMO gap              3.950488409065 eV    ::
         ::.................................................::
         :: SCC energy               -69.505514710832 Eh    ::
         :: -> isotropic ES            0.107385499389 Eh    ::
         :: -> anisotropic ES          0.006756096334 Eh    ::
         :: -> anisotropic XC          0.018953947504 Eh    ::
         :: -> dispersion             -0.043196134777 Eh    ::
         :: repulsion energy           0.862686224054 Eh    ::
         :: add. restraining           0.000000000000 Eh    ::
         :: total charge               0.000000000000 e     ::
         :::::::::::::::::::::::::::::::::::::::::::::::::::::

           -------------------------------------------------
          |                Property Printout                |
           -------------------------------------------------

    * Orbital Energies and Occupations

         #    Occupation            Energy/Eh            Energy/eV
      -------------------------------------------------------------
         1        2.0000           -0.7162053             -19.4889
       ...           ...                  ...                  ...
        49        2.0000           -0.4593164             -12.4986
        50        2.0000           -0.4564593             -12.4209
        51        2.0000           -0.4506033             -12.2615
        52        2.0000           -0.4373564             -11.9011
        53        2.0000           -0.4321654             -11.7598
        54        2.0000           -0.4308598             -11.7243
        55        2.0000           -0.4196681             -11.4198
        56        2.0000           -0.4022676             -10.9463
        57        2.0000           -0.3889465             -10.5838
        58        2.0000           -0.3861399             -10.5074
        59        2.0000           -0.3806338             -10.3576
        60        2.0000           -0.3722657             -10.1299
        61        2.0000           -0.3614919              -9.8367 (HOMO)
        62                         -0.2163142              -5.8862 (LUMO)
        63                         -0.2099402              -5.7128
        64                         -0.2016454              -5.4871
        65                         -0.1916059              -5.2139
        66                         -0.0875719              -2.3830
        67                         -0.0144432              -0.3930
        68                          0.0125960               0.3428
        69                          0.0158515               0.4313
        70                          0.0364644               0.9922
        71                          0.0744132               2.0249
        72                          0.0859545               2.3389
       ...                                ...                  ...
       112                          0.6565791              17.8664
      -------------------------------------------------------------
                  HL-Gap            0.1451778 Eh            3.9505 eV
             Fermi-level           -0.2889030 Eh           -7.8615 eV

     #   Z          covCN         q      C6AA      α(0)
     1   6 C        3.754    -0.136    23.176     6.865
     2   6 C        2.769     0.274    22.376     7.747
     3   8 O        0.859    -0.451    22.734     6.393
     4   7 N        2.734    -0.092    23.041     7.129
     5   6 C        3.744     0.001    20.634     6.480
     6   6 C        3.808    -0.073    21.892     6.660
     7   6 C        2.969     0.003    27.958     8.673
     8   6 C        2.925    -0.054    29.344     8.883
     9   6 C        2.919    -0.071    29.762     8.946
    10   6 C        2.859     0.108    25.604     8.294
    11   8 O        1.704    -0.281    18.666     5.833
    12   6 C        3.642     0.041    20.237     6.468
    13   6 C        2.853     0.123    25.302     8.244
    14   8 O        1.706    -0.268    18.443     5.798
    15   6 C        3.636     0.037    20.325     6.486
    16   6 C        2.931    -0.069    29.711     8.939
    17   6 C        3.762    -0.021    20.998     6.532
    18   6 C        2.763     0.266    22.517     7.771
    19   8 O        0.859    -0.439    22.482     6.357
    20   7 N        2.731    -0.089    22.982     7.120
    21   6 C        3.695    -0.054    21.727     6.668
    22   6 C        3.703    -0.050    21.637     6.651
    23   1 H        0.925     0.068     2.105     2.269
    24   1 H        0.925     0.059     2.211     2.325
    25   1 H        0.925     0.051     2.304     2.374
    26   1 H        0.924     0.044     2.393     2.419
    27   1 H        0.924     0.050     2.322     2.383
    28   1 H        0.925     0.050     2.325     2.385
    29   1 H        0.925     0.074     2.045     2.236
    30   1 H        0.926     0.035     2.523     2.484
    31   1 H        0.926     0.039     2.465     2.455
    32   1 H        0.925     0.058     2.222     2.331
    33   1 H        0.924     0.038     2.478     2.462
    34   1 H        0.924     0.038     2.472     2.459
    35   1 H        0.924     0.055     2.253     2.348
    36   1 H        0.924     0.050     2.315     2.379
    37   1 H        0.924     0.044     2.393     2.419
    38   1 H        0.926     0.052     2.296     2.369
    39   1 H        0.924     0.078     2.000     2.212
    40   1 H        0.924     0.052     2.300     2.372
    41   1 H        0.925     0.052     2.291     2.367
    42   1 H        0.925     0.065     2.139     2.287
    43   1 H        0.924     0.057     2.235     2.338
    44   1 H        0.925     0.090     1.884     2.146
    45   1 H        0.924     0.052     2.300     2.372
    46   1 H        0.924     0.047     2.353     2.399

 Mol. C6AA /au·bohr⁶  :      20073.008822
 Mol. C8AA /au·bohr⁸  :     450053.850175
 Mol. α(0) /au        :        215.527932


Wiberg/Mayer (AO) data.
largest (>0.10) Wiberg bond orders for each atom

 ---------------------------------------------------------------------------
     #   Z sym  total        # sym  WBO       # sym  WBO       # sym  WBO
 ---------------------------------------------------------------------------
     1   6 C    3.995 --     2 C    0.985    23 H    0.983    24 H    0.970
                            25 H    0.967
     2   6 C    3.950 --     3 O    1.674     4 N    1.228     1 C    0.985
     3   8 O    1.985 --     2 C    1.674     4 N    0.186
     4   7 N    3.487 --     2 C    1.228    17 C    0.997     5 C    0.995
                             3 O    0.186
     5   6 C    3.971 --     4 N    0.995     6 C    0.973    26 H    0.968
                            27 H    0.967
     6   6 C    3.990 --     7 C    1.012     5 C    0.973    28 H    0.971
                            29 H    0.963
     7   6 C    3.987 --     8 C    1.410    16 C    1.408     6 C    1.012
     8   6 C    3.988 --     9 C    1.429     7 C    1.410    30 H    0.969
     9   6 C    3.987 --     8 C    1.429    10 C    1.392    31 H    0.965
    10   6 C    3.930 --     9 C    1.392    13 C    1.296    11 O    1.034
    11   8 O    2.203 --    10 C    1.034    12 C    0.988
    12   6 C    3.949 --    11 O    0.988    32 H    0.979    34 H    0.976
                            33 H    0.976
    13   6 C    3.938 --    16 C    1.386    10 C    1.296    14 O    1.060
    14   8 O    2.225 --    13 C    1.060    15 C    0.980
    15   6 C    3.944 --    14 O    0.980    35 H    0.980    37 H    0.979
                            36 H    0.976
    16   6 C    3.983 --     7 C    1.408    13 C    1.386    38 H    0.965
    17   6 C    3.978 --     4 N    0.997    40 H    0.955    39 H    0.953
                            18 C    0.945
    18   6 C    3.955 --    19 O    1.672    20 N    1.254    17 C    0.945
    19   8 O    2.006 --    18 C    1.672    20 N    0.196
    20   7 N    3.493 --    18 C    1.254    21 C    1.004    22 C    0.995
                            19 O    0.196
    21   6 C    3.973 --    20 N    1.004    42 H    0.981    41 H    0.978
                            43 H    0.972
    22   6 C    3.964 --    20 N    0.995    46 H    0.978    45 H    0.977
                            44 H    0.973
    23   1 H    0.995 --     1 C    0.983
    24   1 H    0.996 --     1 C    0.970
    25   1 H    0.997 --     1 C    0.967
    26   1 H    0.998 --     5 C    0.968
    27   1 H    0.997 --     5 C    0.967
    28   1 H    0.997 --     6 C    0.971
    29   1 H    0.994 --     6 C    0.963
    30   1 H    0.999 --     8 C    0.969
    31   1 H    0.998 --     9 C    0.965
    32   1 H    0.996 --    12 C    0.979
    33   1 H    0.998 --    12 C    0.976
    34   1 H    0.998 --    12 C    0.976
    35   1 H    0.996 --    15 C    0.980
    36   1 H    0.996 --    15 C    0.976
    37   1 H    0.998 --    15 C    0.979
    38   1 H    0.997 --    16 C    0.965
    39   1 H    0.994 --    17 C    0.953
    40   1 H    0.997 --    17 C    0.955
    41   1 H    0.997 --    21 C    0.978
    42   1 H    0.996 --    21 C    0.981
    43   1 H    0.997 --    21 C    0.972
    44   1 H    0.992 --    22 C    0.973
    45   1 H    0.997 --    22 C    0.977
    46   1 H    0.998 --    22 C    0.978
 ---------------------------------------------------------------------------

Topologies differ in total number of bonds
Writing topology from bond orders to xtbtopo.mol

molecular dipole:
                 x           y           z       tot (Debye)
 q only:        0.058       1.143       0.917
   full:        0.062       1.050       1.310       4.271
molecular quadrupole (traceless):
                xx          xy          yy          xz          yz          zz
 q only:      -10.705      16.707      -1.069      -6.029     -10.093      11.774
  q+dip:      -13.176      18.137      -2.422      -6.723     -12.181      15.598
   full:      -11.578      17.744      -3.970      -6.073     -11.971      15.548

           -------------------------------------------------
          |                Geometry Summary                 |
           -------------------------------------------------

      molecular mass/u    :      308.3733785
   center of mass at/Å    :        1.2826932       1.7074698       2.5251944
  moments of inertia/u·Å² :        0.1014168E+04   0.4366651E+04   0.5050845E+04
rotational constants/cm⁻¹ :        0.1662213E-01   0.3860541E-02   0.3337587E-02

 * 43 selected distances

     #   Z          #   Z                                           value/Å
     2   6 C        3   8 O                                       1.2175153
     2   6 C        4   7 N                                       1.3593535
     4   7 N        5   6 C                                       1.4434544
     5   6 C        6   6 C                                       1.5394235 (max)
     7   6 C        8   6 C                                       1.3844656
     8   6 C        9   6 C                                       1.3839280
     9   6 C       10   6 C                                       1.3888301
    10   6 C       11   8 O                                       1.3759561
    11   8 O       12   6 C                                       1.4042292
    10   6 C       13   6 C                                       1.4072626
    13   6 C       14   8 O                                       1.3651397
    14   8 O       15   6 C                                       1.4093398
     7   6 C       16   6 C                                       1.3857979
    13   6 C       16   6 C                                       1.3904560
Note: The following floating-point exceptions are signalling: IEEE_UNDERFLOW_FLAG IEEE_DENORMAL
normal termination of xtb
     4   7 N       17   6 C                                       1.4469467
    18   6 C       19   8 O                                       1.2153020
    18   6 C       20   7 N                                       1.3514923
    20   7 N       21   6 C                                       1.4435016
    20   7 N       22   6 C                                       1.4464340
     1   6 C       23   1 H                                       1.0866284
     1   6 C       24   1 H                                       1.0859588
     1   6 C       25   1 H                                       1.0883219
     5   6 C       26   1 H                                       1.0951590
     5   6 C       27   1 H                                       1.0918715
     6   6 C       28   1 H                                       1.0897844
     6   6 C       29   1 H                                       1.0891225
     8   6 C       30   1 H                                       1.0796677
     9   6 C       31   1 H                                       1.0781254 (min)
    12   6 C       32   1 H                                       1.0892917
    12   6 C       33   1 H                                       1.0949397
    12   6 C       34   1 H                                       1.0947847
    15   6 C       35   1 H                                       1.0903002
    15   6 C       36   1 H                                       1.0919172
    15   6 C       37   1 H                                       1.0922978
    16   6 C       38   1 H                                       1.0792095
    17   6 C       39   1 H                                       1.0935882
    17   6 C       40   1 H                                       1.0925684
    21   6 C       41   1 H                                       1.0898561
    21   6 C       42   1 H                                       1.0885717
    21   6 C       43   1 H                                       1.0941740
    22   6 C       44   1 H                                       1.0880561
    22   6 C       45   1 H                                       1.0920566
    22   6 C       46   1 H                                       1.0920487

 * 4 distinct bonds (by element types)

   Z      Z             #   av. dist./Å        max./Å        min./Å
   1 H    6 C          24     1.0895125     1.0951590     1.0781254
   6 C    6 C           7     1.4114520     1.5394235     1.3839280
   6 C    7 N           6     1.4151971     1.4469467     1.3514923
   6 C    8 O           6     1.3312470     1.4093398     1.2153020


optimized geometry written to: xtbopt.xyz


           -------------------------------------------------
          | TOTAL ENERGY              -68.642828486778 Eh   |
          | GRADIENT NORM               0.000466360704 Eh/α |
          | HOMO-LUMO GAP               3.950488409065 eV   |
           -------------------------------------------------

------------------------------------------------------------------------
 * finished run on 2026/01/25 at 20:06:40.604     
------------------------------------------------------------------------
 total:
 * wall-time:     0 d,  0 h,  0 min,  1.613 sec
 *  cpu-time:     0 d,  0 h,  0 min,  1.593 sec
 * ratio c/w:     0.987 speedup
 SCF:
 * wall-time:     0 d,  0 h,  0 min,  0.043 sec
 *  cpu-time:     0 d,  0 h,  0 min,  0.043 sec
 * ratio c/w:     0.995 speedup
 ANC optimizer:
 * wall-time:     0 d,  0 h,  0 min,  1.551 sec
 *  cpu-time:     0 d,  0 h,  0 min,  1.540 sec
 * ratio c/w:     0.993 speedup

