46
 energy: -68.642839245211 gnorm: 0.000401229143 xtb: 6.7.1 (edcfbbe)
C            3.23221746370794        2.18188022964470       -0.73542124013992
C            3.59751268381630        0.77897642110880       -0.30667708171347
O            4.15678788892522        0.55317805940828        0.75087989896891
N            3.32071002268524       -0.22648937377962       -1.17823234474963
C            2.65029186872724       -0.07301878259178       -2.44719151311136
C            1.11620032995528       -0.16912517987984       -2.36249927346057
C            0.53224281839205       -0.18476330107841       -3.74337580422602
C            0.07321975178320        0.97106656477026       -4.35168241820433
C           -0.42460735751575        0.93458462868103       -5.64249038864114
C           -0.47541858378166       -0.24586721028493       -6.37247486631945
O           -0.94697575367893       -0.31032481035483       -7.66379427641174
C           -1.44628428536790        0.85981892882152       -8.25829607205380
C           -0.01743124439972       -1.42922234880670       -5.76403488584431
O            0.02451348123981       -2.68013500291653       -6.30875969252814
C           -0.62303759074811       -2.97387165289109       -7.52521672725408
C            0.47710481974133       -1.36603687043368       -4.46589346336464
C            3.62111587497275       -1.56117512841762       -0.70687141597489
C            2.56060482150290       -2.05653661986551        0.28409469961420
O            1.46428353740907       -1.53806458164130        0.36161480301587
N            2.91594617133618       -3.12110352141710        1.03637879165367
C            4.22085580524125       -3.73718835890440        1.00270776368625
C            2.00910007091793       -3.59002645266127        2.06081994110346
H            3.47685979799976        2.85663503999219        0.08040492882301
H            2.17134470129017        2.25604601492748       -0.95517790955588
H            3.80157401016411        2.47344952487789       -1.61589097005391
H            3.01145181657133       -0.86173387806982       -3.11543579713552
H            2.92926220067795        0.88454305427952       -2.89145906525454
H            0.72827018147449        0.67664279773372       -1.79530346523569
H            0.84912653148814       -1.07661773969510       -1.82250940071901
H            0.09401752697189        1.91114328154982       -3.82112024513043
H           -0.77464869638102        1.85337359010649       -6.08480281817031
H           -1.77827539108665        0.56028425686714       -9.25166323093534
H           -0.67197554687194        1.62816532244064       -8.35456895270960
H           -2.29685939172672        1.26658044488123       -7.70151265142052
H           -0.51706543954245       -4.05192637337682       -7.64879706756876
H           -0.15522082172448       -2.46311713212835       -8.36898542934525
H           -1.68345443185115       -2.71559618254437       -7.49057071536447
H            0.81496809486426       -2.29220698722138       -4.02691673319904
H            4.59009377332566       -1.51939154379018       -0.20194079709681
H            3.67459745488934       -2.24438228730411       -1.55776498547654
H            4.53281854577596       -3.94267214271660       -0.02129152668059
H            4.16976694364547       -4.68278994380531        1.53912827509531
H            4.97495303607455       -3.10742681508311        1.48394601284490
H            1.09764615934823       -2.99935043849304        1.99735850806193
H            2.45209255945838       -3.46341728883774        3.05067886076964
H            1.77077379030829       -4.64402021108556        1.90324074141087
