46
 energy: -68.628152106960 gnorm: 0.081963555365 xtb: 6.7.1 (edcfbbe)
C            3.13650000000000       -1.96910000000000        1.68750000000000
C            3.48530000000000       -0.82570000000000        0.76960000000000
O            4.15560000000000       -1.03820000000000       -0.24290000000000
N            3.07350000000000        0.45040000000000        1.13250000000000
C            2.33520000000000        0.78720000000000        2.35860000000000
C            0.80480000000000        0.80410000000000        2.22970000000000
C            0.16180000000000        1.24380000000000        3.53160000000000
C           -0.15440000000000        0.31270000000000        4.52480000000000
C           -0.71680000000000        0.72810000000000        5.74160000000000
C           -0.97080000000000        2.08080000000000        5.99930000000000
O           -1.56180000000000        2.53100000000000        7.15320000000000
C           -1.98130000000000        1.56870000000000        8.11240000000000
C           -0.62590000000000        3.02700000000000        5.01990000000000
O           -0.79320000000000        4.38950000000000        5.08770000000000
C           -0.70530000000000        4.98500000000000        6.37820000000000
C           -0.08510000000000        2.59740000000000        3.79380000000000
C            3.49280000000000        1.55500000000000        0.25830000000000
C            2.57200000000000        1.88340000000000       -0.93230000000000
O            1.49250000000000        1.30920000000000       -1.08970000000000
N            3.00880000000000        2.89750000000000       -1.79380000000000
C            4.24430000000000        3.65580000000000       -1.64460000000000
C            2.19160000000000        3.25850000000000       -2.94180000000000
H            3.51670000000000       -2.90150000000000        1.25520000000000
H            2.05400000000000       -2.06200000000000        1.79720000000000
H            3.61700000000000       -1.83720000000000        2.65980000000000
H            2.69180000000000        1.76480000000000        2.70550000000000
H            2.61910000000000        0.07860000000000        3.14330000000000
H            0.43230000000000       -0.19010000000000        1.95310000000000
H            0.48850000000000        1.47750000000000        1.42440000000000
H            0.02890000000000       -0.74660000000000        4.36330000000000
H           -0.95110000000000       -0.04490000000000        6.46680000000000
H           -2.47050000000000        2.10520000000000        8.93180000000000
H           -1.12250000000000        1.03510000000000        8.53250000000000
H           -2.71410000000000        0.87410000000000        7.68920000000000
H           -0.48890000000000        6.04840000000000        6.23530000000000
H            0.11090000000000        4.56260000000000        6.97380000000000
H           -1.66310000000000        4.92200000000000        6.90240000000000
H            0.15450000000000        3.34670000000000        3.04040000000000
H            4.47950000000000        1.30510000000000       -0.14870000000000
H            3.59850000000000        2.45580000000000        0.87150000000000
H            4.83480000000000        3.35580000000000       -0.77960000000000
H            3.99020000000000        4.71490000000000       -1.53730000000000
H            4.85130000000000        3.52080000000000       -2.54500000000000
H            1.28610000000000        2.65330000000000       -3.02030000000000
H            2.78550000000000        3.12530000000000       -3.85190000000000
H            1.90780000000000        4.31180000000000       -2.85120000000000
46
 energy: -68.636950963659 gnorm: 0.026002189496 xtb: 6.7.1 (edcfbbe)
C            3.12384712685418       -1.94437346880945        1.68417823386162
C            3.47159850656602       -0.79722041334333        0.76304832400263
O            4.14392223410853       -0.98132932217129       -0.23623476415325
N            3.05838103028663        0.46082541466949        1.12110009242201
C            2.33445423773770        0.78192185348809        2.34655796629015
C            0.80335315904257        0.80842767863626        2.22585650156486
C            0.17400618356007        1.24272963068681        3.53172424463495
C           -0.14402181024912        0.32154836033146        4.52111584709832
C           -0.70941419381133        0.72996510580895        5.72335189633817
C           -0.96770375519388        2.07189672613045        5.98634322639131
O           -1.55885804141031        2.51987802255613        7.14292729818323
C           -1.97411638656799        1.56832951199971        8.10196613323401
C           -0.61359846441874        3.01873281294324        5.01019828606820
O           -0.77887857557181        4.37820864144776        5.09831760710903
C           -0.70882935621636        4.98629635176057        6.37658180835708
C           -0.06766622629005        2.58536219919472        3.79993533649775
C            3.49370979219722        1.55876065701354        0.26593755595170
C            2.56495020324369        1.88657775957865       -0.91270778294613
O            1.49987948691485        1.32606200622421       -1.07844404508896
N            3.00240623092140        2.87367043543836       -1.76322028182896
C            4.22707782551984        3.63870465267515       -1.64006036111109
C            2.20415971208925        3.24670573664202       -2.91564157218891
H            3.50835819499138       -2.86420647974539        1.24172111241886
H            2.04789726869501       -2.04207690690819        1.80735924929995
H            3.59424680386323       -1.81817435583215        2.65879976177309
H            2.67860642251959        1.76620518301339        2.68464551064792
H            2.61579522096251        0.06553799282754        3.12431755194193
H            0.44353038606165       -0.18746272206554        1.95555814621083
H            0.50897597960215        1.48684987251342        1.42166524113815
H            0.03079811887285       -0.73321208914032        4.35953091566030
H           -0.95078407662324       -0.03155311078200        6.45022603439206
H           -2.45670074730522        2.13085318531668        8.90446490470921
H           -1.12079705966815        1.02508613147729        8.51850906174807
H           -2.69995764194513        0.86809972448222        7.67935091050735
H           -0.49077944729426        6.04431089410219        6.20567003883287
H            0.09551396558078        4.55496963198559        6.97574128899608
H           -1.65838705373496        4.90344803128164        6.90942192811717
H            0.15906734353380        3.33574036054661        3.05541250886168
H            4.47156982181975        1.27875517607218       -0.14407589390887
H            3.60064209918058        2.45475584119804        0.88533575868786
H            4.81595203328141        3.33937296093840       -0.78058192512961
H            3.98467931403475        4.70164174255003       -1.54083777587800
H            4.83651823718262        3.50913290223983       -2.53900893362139
H            1.31079710535561        2.62859158057852       -2.96615923951230
H            2.78427911807052        3.11107871225982       -3.83349118822624
H            1.90881967365040        4.29817538818869       -2.84130651835471
46
 energy: -68.639011247353 gnorm: 0.009761769439 xtb: 6.7.1 (edcfbbe)
C            3.10465560720192       -1.92013636150999        1.67659956054298
C            3.46542755090633       -0.76859544457124        0.76226652486295
O            4.13598964452677       -0.93738849325682       -0.23639720581023
N            3.04933806526577        0.47702636268412        1.12236349435389
C            2.33614084163579        0.78877816397685        2.34492220021250
C            0.80316609473886        0.81107050681345        2.21538347112702
C            0.18014073646940        1.23970375955450        3.51954683782334
C           -0.13700703844277        0.32058730497540        4.50683221735568
C           -0.69883704455885        0.72684181219326        5.70459212246595
C           -0.95352871792832        2.06504734335519        5.97189488796085
O           -1.54866815036024        2.51247966294783        7.12698497692021
C           -1.96368224695838        1.56840026826690        8.08442312778484
C           -0.59478676173966        3.01390602047519        4.99733565602943
O           -0.76151539128092        4.36924264135424        5.09944057916078
C           -0.71103357897698        4.98025744526122        6.37255163222521
C           -0.05219919362196        2.57885092962724        3.79356475335579
C            3.49660454286319        1.57027667326534        0.28200966357715
C            2.55780210022499        1.89080975165105       -0.88837517065844
O            1.49247151001481        1.33779631517087       -1.04491603630656
N            2.99754047783702        2.85724622388592       -1.73428102391994
C            4.21778588164445        3.62079466004301       -1.62896661094833
C            2.20238911232996        3.22567279155018       -2.88537607189284
H            3.48509983933100       -2.83268116026002        1.22311812983220
H            2.03040939536439       -2.00839991233130        1.80641755238369
H            3.57308915994682       -1.79984673137361        2.65174412000204
H            2.66946887558561        1.77580643870925        2.68380668470598
H            2.61460429478446        0.06697347933722        3.11646882402167
H            0.44867400067971       -0.18416943833298        1.94566607240967
H            0.52201445214059        1.49494009055970        1.41464382580814
H            0.03752808357367       -0.73227073846508        4.34601939304981
H           -0.95064263248440       -0.02595045978337        6.43428017747410
H           -2.44057373335954        2.14738656800080        8.87556032411353
H           -1.11588479961291        1.01770186096184        8.50349802377259
H           -2.68871363179327        0.86392882584151        7.66673658846921
H           -0.50053126140013        6.03423030871064        6.18336579244830
H            0.08820133141435        4.55543926220054        6.98296773074498
H           -1.65871163665788        4.88702434266361        6.90625585836302
H            0.17766630593935        3.33468309833135        3.05986290350399
H            4.46356286068951        1.26537421973468       -0.13681926898416
H            3.61453058746457        2.46301922199779        0.90268479356171
H            4.81233503828854        3.32555352309662       -0.77351775945789
H            3.97959857957627        4.68596952094103       -1.53886229896558
H            4.82015301637747        3.48725925793501       -2.53215317598922
H            1.31569086897188        2.59735758460663       -2.91431512633728
H            2.77790202391948        3.08346485893756       -3.80381932069000
H            1.90363493946922        4.27613764026685       -2.82090943046286
46
 energy: -68.639692999433 gnorm: 0.006586211200 xtb: 6.7.1 (edcfbbe)
C            3.08721459660160       -1.90736743497085        1.66771187825181
C            3.46205125216980       -0.75337287589776        0.76264422486275
O            4.13872745637596       -0.91675093537457       -0.23412866342768
N            3.05311925377133        0.48884284341649        1.13350594980275
C            2.33798959324509        0.79486370970855        2.35083632801599
C            0.80539702799487        0.81396797779950        2.20489367851785
C            0.18211658255536        1.23795290899475        3.50605163498674
C           -0.13451654987943        0.31633398271117        4.49078209967208
C           -0.69313152379007        0.72211220486034        5.68964620930590
C           -0.94316424775450        2.06059064274590        5.95878626037717
O           -1.53860370513532        2.50821327225776        7.11301209574214
C           -1.95411419937194        1.56772119179401        8.07010139616189
C           -0.58020909339471        3.01228287837888        4.98722446720136
O           -0.74420632782389        4.36561424629671        5.09514901032223
C           -0.71151770123250        4.97647427876274        6.36735959451501
C           -0.03943089243367        2.57785305971269        3.78429549328912
C            3.50458176035188        1.58256516293906        0.30195890980805
C            2.55248630442404        1.90250472541249       -0.85729089244304
O            1.48341804409543        1.34861502708520       -0.99695713373215
N            2.99274556693811        2.85315933955040       -1.71398608442470
C            4.21548169821847        3.61085391811756       -1.62313726557559
C            2.19108223213050        3.20687008350956       -2.86381551085569
H            3.45728059327838       -2.81965317137000        1.20770937936633
H            2.01182025102548       -1.97960074256615        1.79651677506414
H            3.55622713756950       -1.79467625541156        2.64365532760463
H            2.66218519173079        1.78290076104908        2.69447446551846
H            2.61042779219637        0.07222682865372        3.12266134057552
H            0.45571182687745       -0.18067687466796        1.92968714266752
H            0.53299144348909        1.50063901895337        1.40437401043561
H            0.03785205607370       -0.73652621620244        4.32668803583449
H           -0.94860406770317       -0.02729924110499        6.42147731767198
H           -2.42734901045911        2.15151495092537        8.85858645627233
H           -1.10856365447034        1.01293722084433        8.48992915415116
H           -2.68153312200541        0.86285948843968        7.65569914807629
H           -0.51013826698679        6.03039118718584        6.17468405080744
H            0.08556335994056        4.56069935226292        6.98815112704421
H           -1.66238293494490        4.87507977768232        6.89446277199938
H            0.19546123726514        3.33674497450510        3.05492893836200
H            4.46302155444676        1.26875368790046       -0.12911168907730
H            3.63341580832985        2.47263832402334        0.92320864051633
H            4.81615353730385        3.32043432657227       -0.76997895394254
H            3.98105563912903        4.67746486144642       -1.53983898600805
H            4.80971315745970        3.46666515877849       -2.53023078820784
H            1.30715876903611        2.57329743928541       -2.87594332833488
H            2.76224543797526        3.05420759337376       -3.78273835657683
H            1.89006913538611        4.25667734163061       -2.80859566019467
46
 energy: -68.640347817763 gnorm: 0.006488971736 xtb: 6.7.1 (edcfbbe)
C            3.06228608138756       -1.89618419936933        1.65719055208901
C            3.46430177216795       -0.73958026190284        0.76851410139546
O            4.14389059812135       -0.90208826911825       -0.22811848904022
N            3.07123690948456        0.50234536184148        1.15529192849883
C            2.34185309846274        0.80235990745166        2.36128754288231
C            0.81058169720762        0.81797976151191        2.19074361162062
C            0.18170474770668        1.23673812375642        3.48666801323720
C           -0.13557785756028        0.31069667030801        4.46693144291163
C           -0.68764177930407        0.71604608230325        5.66972656639982
C           -0.92918640459388        2.05593008095624        5.94165098037990
O           -1.52353459299779        2.50325811325086        7.09570259359183
C           -1.94127059932240        1.56481903425687        8.05135482094787
C           -0.56126197020100        3.01175868855103        4.97486697615789
O           -0.71681695552886        4.36392389499936        5.08727992134417
C           -0.71217377052854        4.97389587592823        6.35966947454542
C           -0.02433237678492        2.57851244009401        3.77015025428912
C            3.52126735517564        1.59804726314258        0.33003083318062
C            2.55163777328777        1.91819791780248       -0.81477687037576
O            1.47329651466879        1.36866435987466       -0.92193622411499
N            2.98581966521914        2.85183204660896       -1.69074411044738
C            4.21337512871356        3.60224129046906       -1.61983593247673
C            2.16909482822830        3.18437667206215       -2.83649177475129
H            3.41001856251039       -2.81255773344688        1.18871395048388
H            1.98442242381216       -1.94006012435424        1.78411343477194
H            3.53453825095815       -1.80012788509189        2.63379447945300
H            2.65477032430690        1.79129884315587        2.71190207052025
H            2.60358551725924        0.08129752167750        3.13786772296372
H            0.46662219018981       -0.17555002851052        1.90524550584996
H            0.54954437078597        1.50677487941145        1.38853803982660
H            0.03227061522639       -0.74237136307248        4.29600066747782
H           -0.94511137111199       -0.03160462077854        6.40297134242451
H           -2.41045652405169        2.14959284064149        8.84072475668201
H           -1.09791372145866        1.00472564442255        8.47025911021221
H           -2.67310257682428        0.86249208512794        7.63858734385121
H           -0.52485755091121        6.03014228663911        6.16888011197732
H            0.08224602718416        4.57194107718773        6.99458496418258
H           -1.66992907260101        4.85928578441801        6.87276185188150
H            0.21953109007379        3.33906734267357        3.04416528542641
H            4.46935476011816        1.27903661008988       -0.11796005666196
H            3.66526471704853        2.48439457384098        0.95251589754784
H            4.82234619843342        3.31731725156284       -0.77003161057200
H            3.98546428283664        4.67063110880512       -1.54373080108998
H            4.79617380387054        3.44278857913676       -2.53190446130855
H            1.28878136934915        2.54488982983434       -2.82643309542105
H            2.73191217686850        3.01756790044893       -3.75774105830294
H            1.86327427311673        4.23285674140171       -2.79388166444205
46
 energy: -68.640780646270 gnorm: 0.007308744477 xtb: 6.7.1 (edcfbbe)
C            3.03887798092675       -1.89040172303470        1.64971597366065
C            3.46671249649079       -0.73332646979742        0.77466559545389
O            4.14967311744705       -0.89765578403102       -0.22004617065804
N            3.09688079903927        0.51132719436874        1.17783356510327
C            2.34755540491947        0.80748860938324        2.37161339671457
C            0.81828325790070        0.82191769230220        2.17875017031497
C            0.18124410356051        1.23729627217189        3.46997732637892
C           -0.14057871759389        0.30760025923181        4.44502507239013
C           -0.68706800815768        0.71244255529568        5.65119802487780
C           -0.91861917141201        2.05366465782361        5.92698414671219
O           -1.50917023531122        2.49982268542368        7.08334439287373
C           -1.92943647914624        1.55988129374358        8.03597639600590
C           -0.54639224324535        3.01263289341552        4.96464952944872
O           -0.68888031062490        4.36539707259158        5.07920865728975
C           -0.71347758363874        4.97381671349554        6.35228531902501
C           -0.01304822083365        2.58017289141087        3.75739668860949
C            3.54254753556532        1.60966524406605        0.35466117112381
C            2.55479564939295        1.93514226549785       -0.77424324516269
O            1.47033415455452        1.39032461009271       -0.85415481551853
N            2.97910532038842        2.85380135247919       -1.67081737203485
C            4.21153431289677        3.59883480261447       -1.62268533713135
C            2.14537534171760        3.16626883228399       -2.81103176549834
H            3.36255909245783       -2.81171074411368        1.17278032923829
H            1.95962975468202       -1.90775193186966        1.77539307072815
H            3.51398063597339       -1.81474005837811        2.62719309965495
H            2.65279475882203        1.79647135513517        2.72876323785774
H            2.59820540119992        0.08754811814741        3.15354865449351
H            0.47766538973461       -0.17023639207530        1.88398282494354
H            0.56686173220649        1.51202492493176        1.37460716019373
H            0.02051250096623       -0.74565005454917        4.26675705345866
H           -0.94535959311433       -0.03581609041224        6.38368425706275
H           -2.39489231863004        2.14210608552989        8.82953467718017
H           -1.08760216598665        0.99438396287545        8.45127208987578
H           -2.66576618978496        0.86260655848859        7.62178913022340
H           -0.53911064379873        6.03338569229330        6.16633937231992
H            0.07743338385249        4.58413064882068        6.99972161054688
H           -1.67844178491489        4.84555984641585        6.84919276623824
H            0.23892733285568        3.33989164110450        3.03272194431810
H            4.48323243352428        1.29075292807466       -0.10726315395414
H            3.69918424540095        2.49158813527519        0.98039950467103
H            4.82809644171920        3.31951866782137       -0.77612310469627
H            3.99011954232803        4.66886055225151       -1.55410463283398
H            4.78326046228582        3.42542022397428       -2.53922048055085
H            1.26798335111819        2.52304586350900       -2.77952000927156
H            2.69741028088782        2.98675901311979       -3.73642763035658
H            1.83436745137774        4.21333713280080       -2.78022849132117
46
 energy: -68.641052240384 gnorm: 0.005187992641 xtb: 6.7.1 (edcfbbe)
C            3.01932130612562       -1.88842455579850        1.64409259059711
C            3.47135418646758       -0.73114836485527        0.78160963487993
O            4.15411093009339       -0.89814653300953       -0.21239074694410
N            3.12322834404629        0.51649012709272        1.19734929945278
C            2.35444497431473        0.81061452828593        2.38044115441390
C            0.82766412434601        0.82542751956474        2.17116911971529
C            0.18152799207779        1.23920254374286        3.45836518301694
C           -0.14855319185786        0.30736282329030        4.42824415632301
C           -0.69224850131463        0.71189049971220        5.63574929576235
C           -0.91315100849948        2.05402991630217        5.91648855475983
O           -1.49743755700367        2.49815449352756        7.07756350866514
C           -1.91954065440230        1.55379858676142        8.02584270005051
C           -0.53698990452370        3.01441869685227        4.95757523019480
O           -0.66487193975814        4.36886726378393        5.07265258524908
C           -0.71588777812712        4.97566935419129        6.34587114925901
C           -0.00615143664854        2.58209243901514        3.74839065836268
C            3.56383367537839        1.61662898625885        0.37262720775323
C            2.56408429732210        1.94433791485825       -0.74555761347613
O            1.47511851621984        1.40676351664624       -0.80567938081636
N            2.97525005063413        2.85532587785244       -1.65591580589958
C            4.21004688837689        3.59875698866998       -1.63034420055505
C            2.12411088693002        3.15438621288235       -2.78743218379255
H            3.32251195120608       -2.81249670039382        1.15817562378589
H            1.94009601175243       -1.88521541544026        1.76902177341251
H            3.49527892744117       -1.83410897022951        2.62267573990487
H            2.65587199469538        1.79906097533988        2.74224145716479
H            2.59664709761468        0.09043010433599        3.16560984620642
H            0.48819015631181       -0.16542624485669        1.87037404485259
H            0.58304959963104        1.51668595259010        1.36613000678887
H            0.00515355288926       -0.74599773764481        4.24440572139954
H           -0.95297557600105       -0.03840276124691        6.36522749807126
H           -2.38088206909487        2.13193572676754        8.82532582857296
H           -1.07859572880928        0.98277367710547        8.43498970111353
H           -2.65999649683525        0.86295686140732        7.60840302134856
H           -0.55115290005449        6.03798822545622        6.16427215599172
H            0.07040658151417        4.59481003118321        7.00357842418918
H           -1.68669339026512        4.83581173919047        6.82743126852401
H            0.25221275215130        3.34002265663394        3.02428982961998
H            4.50049205108046        1.29939555196096       -0.09715746501057
H            3.72879497132895        2.49551897165234        1.00098910371268
H            4.83399051866678        3.32527453428520       -0.78722510490620
H            3.99281835878916        4.66993877011251       -1.56958053771213
H            4.77109483233568        3.41469303004722       -2.55116932216215
H            1.24911061301767        2.50930125433192       -2.73719278702831
H            2.66378466038734        2.96604556395964       -3.71833318388905
H            1.80882733004882        4.20010536782493       -2.76409474092372
46
 energy: -68.641204876654 gnorm: 0.002484094225 xtb: 6.7.1 (edcfbbe)
C            3.00501527868753       -1.88865086621019        1.63859281774552
C            3.47408728156747       -0.73127776556154        0.78576317476656
O            4.15786895008163       -0.89967784004318       -0.20671851943948
N            3.14419047413992        0.51850954237164        1.21107206475712
C            2.36243863533207        0.81199876116914        2.38754206371316
C            0.83807661608275        0.82880137236046        2.16805804445208
C            0.18345174041395        1.24191438852926        3.45193647692597
C           -0.15797171126090        0.30908772662515        4.41681699984522
C           -0.70205428416965        0.71356974810352        5.62365815340083
C           -0.91228699744477        2.05626240501484        5.91014664898689
O           -1.48909516994653        2.49773290275870        7.07714591845856
C           -1.91181025585095        1.54776343381374        8.02080968225868
C           -0.53164402135159        3.01666090938533        4.95387716141504
O           -0.64683712336479        4.37287484739287        5.06847319188280
C           -0.72015462520649        4.97881157733910        6.34085369491429
C           -0.00132336224058        2.58419060939985        3.74399736333128
C            3.58253120976298        1.61956930172841        0.38403048161725
C            2.57464421802127        1.94787243852278       -0.72629179723188
O            1.48486009890808        1.41357023485441       -0.77612333888727
N            2.97394791547920        2.85570219025028       -1.64527907444228
C            4.20930367363539        3.59924112531583       -1.64072818329144
C            2.10759426363262        3.14776564464073       -2.76689294932671
H            3.29500931909834       -2.81230185314388        1.14426191716076
H            1.92660925365314       -1.87247307791395        1.76239406052376
H            3.47921558550383       -1.85215776338842        2.61847008300229
H            2.66368727144960        1.79927064710613        2.75257440686854
H            2.59933388228603        0.08970394687090        3.17281262481385
H            0.49788491334773       -0.16076990057395        1.86399053186230
H            0.59807162608399        1.52167384528542        1.36332343111424
H           -0.01152341207281       -0.74447078810836        4.22965934931877
H           -0.96842896106236       -0.03918549171276        6.34842877498093
H           -2.36791666102671        2.12171938281518        8.82679188022932
H           -1.07117357317229        0.97108559477608        8.42190275188504
H           -2.65640724852115        0.86370601562648        7.60031103644307
H           -0.56139787420748        6.04268639555882        6.16165625443340
H            0.06065739310577        4.60378326573421        7.00765693940103
H           -1.69553946658797        4.83057549288153        6.80891203007589
H            0.26207307151659        3.34105906320912        3.02105873233229
H            4.51812802507398        1.30398422406997       -0.08847865783502
H            3.75091398066413        2.49707766426460        1.01376594864779
H            4.84007332497079        3.33282466974324       -0.80049668440586
H            3.99339972838351        4.67108993914167       -1.58862061041073
H            4.76104661368637        3.40669430836411       -2.56525240020851
H            1.23359225319301        2.50323195626599       -2.70050879040641
H            2.63409288275398        2.95358266851869       -3.70413856317092
H            1.79106526697073        4.19291710684837       -2.74611512250905
46
 energy: -68.641287417670 gnorm: 0.002457626299 xtb: 6.7.1 (edcfbbe)
C            2.99618897374822       -1.88977887732418        1.63221299110447
C            3.47748020623866       -0.73113646954996        0.78795729923509
O            4.16025061816005       -0.89993344313940       -0.20471329205109
N            3.15820012157893        0.51914801639850        1.21894027268161
C            2.37092828783869        0.81239245948479        2.39289204500953
C            0.84810649446569        0.83210819261303        2.16842093257716
C            0.18706107951752        1.24470288923591        3.44978209938738
C           -0.16640458207592        0.31144807068229        4.40999675201919