 Entering Gaussian System, Link 0=/data/opt/apps/g09-C01/g09
 Initial command:
 /data/opt/apps/g09-C01/l1.exe /tmp/g09-tuu61186-11151551007061a61x/Gau-1115206.inp -scrdir=/tmp/g09-tuu61186-11151551007061a61x/
 Entering Link 1 = /data/opt/apps/g09-C01/l1.exe PID=   1115209.
  
 Copyright (c) 1988,1990,1992,1993,1995,1998,2003,2009,2011,
            Gaussian, Inc.  All Rights Reserved.
  
 This is part of the Gaussian(R) 09 program.  It is based on
 the Gaussian(R) 03 system (copyright 2003, Gaussian, Inc.),
 the Gaussian(R) 98 system (copyright 1998, Gaussian, Inc.),
 the Gaussian(R) 94 system (copyright 1995, Gaussian, Inc.),
 the Gaussian 92(TM) system (copyright 1992, Gaussian, Inc.),
 the Gaussian 90(TM) system (copyright 1990, Gaussian, Inc.),
 the Gaussian 88(TM) system (copyright 1988, Gaussian, Inc.),
 the Gaussian 86(TM) system (copyright 1986, Carnegie Mellon
 University), and the Gaussian 82(TM) system (copyright 1983,
 Carnegie Mellon University). Gaussian is a federally registered
 trademark of Gaussian, Inc.
  
 This software contains proprietary and confidential information,
 including trade secrets, belonging to Gaussian, Inc.
  
 This software is provided under written license and may be
 used, copied, transmitted, or stored only in accord with that
 written license.
  
 The following legend is applicable only to US Government
 contracts under FAR:
  
                    RESTRICTED RIGHTS LEGEND
  
 Use, reproduction and disclosure by the US Government is
 subject to restrictions as set forth in subparagraphs (a)
 and (c) of the Commercial Computer Software - Restricted
 Rights clause in FAR 52.227-19.
  
 Gaussian, Inc.
 340 Quinnipiac St., Bldg. 40, Wallingford CT 06492
  
  
 ---------------------------------------------------------------
 Warning -- This program may not be used in any manner that
 competes with the business of Gaussian, Inc. or will provide
 assistance to any competitor of Gaussian, Inc.  The licensee
 of this program is prohibited from giving any competitor of
 Gaussian, Inc. access to this program.  By using this program,
 the user acknowledges that Gaussian, Inc. is engaged in the
 business of creating and licensing software in the field of
 computational chemistry and represents and warrants to the
 licensee that it is not a competitor of Gaussian, Inc. and that
 it will not use this program in any manner prohibited above.
 ---------------------------------------------------------------
  

 Cite this work as:
 Gaussian 09, Revision C.01,
 M. J. Frisch, G. W. Trucks, H. B. Schlegel, G. E. Scuseria, 
 M. A. Robb, J. R. Cheeseman, G. Scalmani, V. Barone, B. Mennucci, 
 G. A. Petersson, H. Nakatsuji, M. Caricato, X. Li, H. P. Hratchian, 
 A. F. Izmaylov, J. Bloino, G. Zheng, J. L. Sonnenberg, M. Hada, 
 M. Ehara, K. Toyota, R. Fukuda, J. Hasegawa, M. Ishida, T. Nakajima, 
 Y. Honda, O. Kitao, H. Nakai, T. Vreven, J. A. Montgomery, Jr., 
 J. E. Peralta, F. Ogliaro, M. Bearpark, J. J. Heyd, E. Brothers, 
 K. N. Kudin, V. N. Staroverov, T. Keith, R. Kobayashi, J. Normand, 
 K. Raghavachari, A. Rendell, J. C. Burant, S. S. Iyengar, J. Tomasi, 
 M. Cossi, N. Rega, J. M. Millam, M. Klene, J. E. Knox, J. B. Cross, 
 V. Bakken, C. Adamo, J. Jaramillo, R. Gomperts, R. E. Stratmann, 
 O. Yazyev, A. J. Austin, R. Cammi, C. Pomelli, J. W. Ochterski, 
 R. L. Martin, K. Morokuma, V. G. Zakrzewski, G. A. Voth, 
 P. Salvador, J. J. Dannenberg, S. Dapprich, A. D. Daniels, 
 O. Farkas, J. B. Foresman, J. V. Ortiz, J. Cioslowski, 
 and D. J. Fox, Gaussian, Inc., Wallingford CT, 2010.
 
 ******************************************
 Gaussian 09:  EM64L-G09RevC.01 23-Sep-2011
                 4-Mar-2026 
 ******************************************
 %nprocshared=8
 Will use up to    8 processors via shared memory.
 %mem=14GB
 ------------------
 # b3lyp/6-31g(d,p)
 ------------------
 1/38=1/1;
 2/12=2,17=6,18=5,40=1/2;
 3/5=1,6=6,7=101,11=2,16=1,25=1,30=1,74=-5/1,2,3;
 4//1;
 5/5=2,38=5/2;
 6/7=2,8=2,9=2,10=2,28=1/1;
 99/5=1,9=1/99;
 -----------------
 Generated by mdgx
 -----------------
 Charge =  0 Multiplicity = 1
 Symbolic Z-Matrix:
 C                     14.95147   17.90786   17.27193 
 C                     14.81524   16.78677   18.30339 
 O                     14.93446   17.04962   19.48605 
 N                     14.5655   15.45726   17.88355 
 C                     14.23583   15.10324   16.47075 
 C                     14.96937   13.84766   15.89431 
 O                     16.06094   14.24249   15.04746 
 C                     17.22907   14.73103   15.72861 
 C                     18.22009   15.25421   14.69877 
 C                     18.54655   16.62434   14.65276 
 C                     19.46534   17.1032   13.703 
 C                     20.06302   16.21491   12.79364 
 C                     19.74253   14.8481   12.83382 
 C                     18.82413   14.36934   13.78392 
 C                     13.93202   13.12767   15.02501 
 C                     12.60222   13.40647   15.72536 
 C                     12.72439   14.84195   16.25799 
 C                     14.44543   14.39612   18.92426 
 C                     15.79792   13.81688   19.40831 
 O                     16.82719   14.03766   18.79173 
 N                     15.80395   12.96279   20.52865 
 C                     14.61874   12.80984   21.38929 
 C                     17.07131   12.36471   20.98263 
 H                     15.1726   18.87414   17.73973 
 H                     14.03734   17.96127   16.67166 
 H                     15.71948   17.63778   16.54037 
 H                     14.49631   15.93741   15.8123 
 H                     15.29722   13.16994   16.69166 
 H                     17.70118   13.92311   16.30135 
 H                     16.97026   15.53676   16.42614 
 H                     18.09053   17.31846   15.35288 
 H                     19.71371   18.16043   13.6723 
 H                     20.77317   16.58508   12.05927 
 H                     20.20378   14.16064   12.13011 
 H                     18.57673   13.31194   13.80948 
 H                     14.13552   12.05247   14.95401 
 H                     13.91713   13.55417   14.01408 
 H                     12.47788   12.71172   16.56498 
 H                     11.74948   13.2924   15.04601 
 H                     12.14382   14.96939   17.18024 
 H                     12.33428   15.54784   15.51454 
 H                     13.84507   13.56296   18.5396 
 H                     13.90683   14.80637   19.78713 
 H                     13.76382   12.48011   20.78638 
 H                     14.38379   13.77184   21.86107 
 H                     14.80352   12.06448   22.1723 
 H                     17.55556   11.84758   20.14501 
 H                     16.88958   11.63898   21.78498 
 H                     17.73438   13.1543   21.35673 
 
                          Input orientation:                          
 ---------------------------------------------------------------------
 Center     Atomic      Atomic             Coordinates (Angstroms)
 Number     Number       Type             X           Y           Z
 ---------------------------------------------------------------------
      1          6           0       14.951475   17.907857   17.271934
      2          6           0       14.815243   16.786771   18.303393
      3          8           0       14.934461   17.049624   19.486054
      4          7           0       14.565502   15.457256   17.883546
      5          6           0       14.235830   15.103240   16.470748
      6          6           0       14.969373   13.847663   15.894314
      7          8           0       16.060940   14.242489   15.047462
      8          6           0       17.229070   14.731033   15.728608
      9          6           0       18.220089   15.254214   14.698768
     10          6           0       18.546547   16.624345   14.652758
     11          6           0       19.465344   17.103197   13.702996
     12          6           0       20.063023   16.214905   12.793642
     13          6           0       19.742531   14.848102   12.833821
     14          6           0       18.824133   14.369343   13.783919
     15          6           0       13.932016   13.127671   15.025014
     16          6           0       12.602218   13.406475   15.725361
     17          6           0       12.724388   14.841948   16.257992
     18          6           0       14.445427   14.396122   18.924259
     19          6           0       15.797922   13.816883   19.408313
     20          8           0       16.827192   14.037655   18.791730
     21          7           0       15.803949   12.962792   20.528646
     22          6           0       14.618741   12.809838   21.389291
     23          6           0       17.071313   12.364711   20.982631
     24          1           0       15.172602   18.874145   17.739731
     25          1           0       14.037343   17.961266   16.671655
     26          1           0       15.719475   17.637783   16.540372
     27          1           0       14.496308   15.937407   15.812299
     28          1           0       15.297223   13.169941   16.691664
     29          1           0       17.701182   13.923107   16.301346
     30          1           0       16.970259   15.536755   16.426138
     31          1           0       18.090532   17.318459   15.352877
     32          1           0       19.713705   18.160426   13.672305
     33          1           0       20.773172   16.585079   12.059271
     34          1           0       20.203784   14.160644   12.130113
     35          1           0       18.576728   13.311945   13.809478
     36          1           0       14.135516   12.052473   14.954011
     37          1           0       13.917125   13.554167   14.014081
     38          1           0       12.477879   12.711724   16.564984
     39          1           0       11.749485   13.292397   15.046013
     40          1           0       12.143824   14.969394   17.180238
     41          1           0       12.334280   15.547841   15.514540
     42          1           0       13.845074   13.562960   18.539603
     43          1           0       13.906826   14.806370   19.787129
     44          1           0       13.763816   12.480105   20.786376
     45          1           0       14.383795   13.771843   21.861066
     46          1           0       14.803522   12.064479   22.172301
     47          1           0       17.555558   11.847577   20.145006
     48          1           0       16.889584   11.638983   21.784976
     49          1           0       17.734379   13.154297   21.356725
 ---------------------------------------------------------------------
                    Distance matrix (angstroms):
                    1          2          3          4          5
     1  C    0.000000
     2  C    1.529477   0.000000
     3  O    2.374696   1.217370   0.000000
     4  N    2.555091   1.416423   2.289061   0.000000
     5  C    3.003319   2.555110   3.656305   1.493322   0.000000
     6  C    4.287578   3.803390   4.811898   2.590549   1.564236
     7  O    4.428782   4.315811   5.371225   3.428610   2.469345
     8  C    4.202560   4.084378   4.975892   3.502250   3.106252
     9  C    4.934252   5.189897   6.077578   4.851809   4.363144
    10  C    4.629474   5.222657   6.048866   5.258214   4.919465
    11  C    5.810319   6.548833   7.346804   6.647900   6.245646
    12  C    7.003507   7.630438   8.472737   7.530199   6.979476
    13  C    7.212015   7.612675   8.498026   7.257577   6.604248
    14  C    6.299588   6.506982   7.404580   6.010528   5.367512
    15  C    5.379416   4.991680   6.023910   3.741587   2.466844
    16  C    5.307856   4.792717   5.731902   3.566223   2.470486
    17  C    3.922727   3.512503   4.492064   2.531942   1.548546
    18  C    3.913891   2.497487   2.756055   1.491142   2.561965
    19  C    4.692191   3.317641   3.346972   2.556285   3.567090
    20  O    4.561420   3.441518   3.624427   2.820515   3.638349
    21  N    5.982186   4.533443   4.306414   3.840918   4.848406
    22  C    6.561489   5.037596   4.658088   4.393392   5.440439
    23  C    6.999247   5.641169   5.362304   5.044527   5.991377
    24  H    1.096105   2.191472   2.536775   3.473383   4.087492
    25  H    1.094908   2.155722   3.091400   2.831555   2.871947
    26  H    1.094508   2.156409   3.104709   2.808999   2.937680
    27  H    2.494069   2.651167   3.863350   2.127298   1.094184
    28  H    4.785823   3.988915   4.795014   2.681009   2.216529
    29  H    4.937728   4.531822   5.250926   3.832683   3.664707
    30  H    3.226915   3.119410   3.974460   2.813044   2.768940
    31  H    3.726103   4.440242   5.207322   4.721674   4.584273
    32  H    5.974944   6.879596   7.607544   7.179532   6.869119
    33  H    7.925512   8.632882   9.458512   8.586578   8.024575
    34  H    8.250253   8.604784   9.498517   8.159254   7.439494
    35  H    6.800990   6.813109   7.711022   6.106580   5.397637
    36  H    6.350123   5.839004   6.793323   4.512162   3.408479
    37  H    5.535169   5.445599   6.572342   4.360608   2.921714
    38  H    5.798125   5.009127   5.777961   3.692522   2.969616
    39  H    6.042345   5.676271   6.631349   4.546225   3.389828
    40  H    4.065203   3.420646   4.175141   2.568496   2.213092
    41  H    3.937996   3.932916   4.978877   3.255572   2.174373
    42  H    4.659317   3.374905   3.773508   2.130207   2.608699
    43  H    4.127556   2.636036   2.485734   2.116869   3.345857
    44  H    6.574369   5.081149   4.893031   4.234684   5.072305
    45  H    6.203951   4.683266   4.085067   4.323690   5.554281
    46  H    7.627618   6.104804   5.664340   5.473664   6.485680
    47  H    7.194636   5.941086   5.862223   5.204269   5.926222
    48  H    7.963831   6.551644   6.195369   5.933103   6.876373
    49  H    6.857580   5.571271   5.149031   5.235300   6.317515
                    6          7          8          9         10
     6  C    0.000000
     7  O    1.436859   0.000000
     8  C    2.431878   1.437763   0.000000
     9  C    3.738298   2.409793   1.521974   0.000000
    10  C    4.695487   3.465151   2.545157   1.409237   0.000000
    11  C    5.967757   4.645558   3.838122   2.441508   1.405537
    12  C    6.415861   4.998680   4.341335   2.819368   2.433855
    13  C    5.757650   4.338327   3.835489   2.441472   2.809617
    14  C    4.425505   3.041031   2.541035   1.408835   2.432482
    15  C    1.533030   2.403256   3.733146   4.797520   5.801655
    16  C    2.413839   3.622324   4.812715   6.002376   6.843991
    17  C    2.482101   3.599627   4.537038   5.727467   6.296924
    18  C    3.123443   4.202742   4.251238   5.730547   6.326918
    19  C    3.610489   4.389458   4.052665   5.487498   6.168637
    20  O    3.447115   3.827354   3.166227   4.491382   5.174769
    21  N    4.791298   5.634451   5.310180   6.713853   7.446802
    22  C    5.603105   6.659671   6.522894   7.981715   8.680956
    23  C    5.701602   6.306595   5.764472   7.011123   7.770978
    24  H    5.358394   5.430442   5.043715   5.624814   5.096519
    25  H    4.288901   4.534562   4.637982   5.358711   5.118225
    26  H    3.917276   3.724702   3.374468   3.914841   3.547179
    27  H    2.144189   2.430185   2.988367   3.946297   4.268590
    28  H    1.096613   2.106424   2.663930   4.105968   5.162185
    29  H    2.762996   2.089168   1.097115   2.146943   3.275540
    30  H    2.671968   2.098269   1.096686   2.150747   2.610060
    31  H    4.699064   3.697852   2.752828   2.169274   1.086237
    32  H    6.785715   5.530278   4.707709   3.424994   2.164045
    33  H    7.475632   6.051623   5.427906   3.905941   3.418416
    34  H    6.454938   5.067621   4.703555   3.424752   3.896151
    35  H    4.200779   2.954269   2.740994   2.165742   3.418190
    36  H    2.191391   2.917560   4.164704   5.196155   6.360028
    37  H    2.174544   2.477419   3.910703   4.677014   5.591551
    38  H    2.819167   4.181440   5.229814   6.551336   7.469534
    39  H    3.375739   4.414898   5.706265   6.770379   7.580012
    40  H    3.300849   4.518951   5.293749   6.569613   7.079681
    41  H    3.158884   3.976192   4.967089   5.949324   6.363473
    42  H    2.888366   4.191285   4.551651   6.062435   6.825210
    43  H    4.147545   5.236660   5.245434   6.685523   7.154985
    44  H    5.220714   6.427901   6.531132   8.038223   8.813088
    45  H    5.995896   7.032746   6.828081   8.259121   8.799146
    46  H    6.528428   7.555670   7.383426   8.814819   9.557517
    47  H    5.362563   5.827044   5.284457   6.458195   7.346044
    48  H    6.577642   7.270418   6.808496   8.065636   8.858210
    49  H    6.161489   6.617504   5.866612   6.998139   7.592366
                   11         12         13         14         15
    11  C    0.000000
    12  C    1.404709   0.000000
    13  C    2.432644   1.404451   0.000000
    14  C    2.809210   2.433433   1.405471   0.000000
    15  C    6.940479   7.217984   6.443857   5.197584   0.000000
    16  C    8.053460   8.493873   7.837306   6.588516   1.528588
    17  C    7.555246   8.230571   7.808926   6.599340   2.432560
    18  C    7.732361   8.511746   8.084370   6.752547   4.132393
    19  C    7.536610   8.227726   7.736104   6.410693   4.813515
    20  O    6.500200   7.154584   6.682268   5.401478   4.837175
    21  N    8.782839   9.409901   8.847437   7.522715   5.815606
    22  C   10.049956  10.729393  10.178596   8.829443   6.409104
    23  C    9.009868   9.530680   8.927807   7.675441   6.777204
    24  H    6.152976   7.446581   7.820565   7.019642   6.475392
    25  H    6.245992   7.375472   7.547843   6.644870   5.107461
    26  H    4.729484   5.910074   6.140507   5.283904   5.082562
    27  H    5.522639   6.338582   6.130317   5.030231   2.972013
    28  H    6.463426   6.868714   6.120453   4.725743   2.154831
    29  H    4.469525   4.809845   4.128734   2.792415   4.058122
    30  H    4.011819   4.818724   4.589606   3.432350   4.122834
    31  H    2.158368   3.414416   3.895820   3.420100   5.912990
    32  H    1.086443   2.163127   3.416925   3.895652   7.783725
    33  H    2.163491   1.086572   2.163154   3.417988   8.218924
    34  H    3.417290   2.163348   1.086534   2.163808   6.984451
    35  H    3.895455   3.415872   2.161199   1.086257   4.804668
    36  H    7.448618   7.558331   6.614330   5.359116   1.096587
    37  H    6.593566   6.807427   6.082979   4.979580   1.097318
    38  H    8.735026   9.166772   8.441615   7.124392   2.158479
    39  H    8.709786   9.095557   8.438175   7.266591   2.188839
    40  H    8.381466   9.138229   8.754793   7.518083   3.351800
    41  H    7.520166   8.220811   7.909366   6.819245   2.941024
    42  H    8.216659   8.871966   8.305874   6.932375   3.542509
    43  H    8.555069   9.422929   9.077758   7.772351   5.049396
    44  H   10.200720  10.840320  10.227198   8.843667   5.800080
    45  H   10.172225  10.974532  10.552987   9.236553   6.881181
    46  H   10.901853  11.525955  10.924723   9.583458   7.278297
    47  H    8.530435   8.910864   8.199965   6.959312   6.401798
    48  H   10.090123  10.576099   9.927786   8.672616   7.527315
    49  H    8.784624   9.387028   8.918606   7.746696   7.385745
                   16         17         18         19         20
    16  C    0.000000
    17  C    1.535971   0.000000
    18  C    3.822273   3.204640   0.000000
    19  C    4.893372   4.519059   1.548892   0.000000
    20  O    5.258461   4.888733   2.412233   1.219964   0.000000
    21  N    5.789601   5.590475   2.544420   1.408777   2.284564
    22  C    6.041724   5.835089   2.936446   2.515726   3.623826
    23  C    6.978322   6.881474   3.906252   2.491748   2.767380
    24  H    6.368672   4.944483   4.688771   5.362004   5.218812
    25  H    4.868386   3.409562   4.236863   5.269236   5.260485
    26  H    5.318412   4.106943   4.220721   4.778129   4.388231
    27  H    3.162397   2.130345   3.473103   4.372887   4.233094
    28  H    2.872758   3.098897   2.685807   2.837150   2.739345
    29  H    5.157335   5.061090   4.207536   3.645125   2.641778
    30  H    4.910088   4.305630   3.730473   3.636716   2.804245
    31  H    6.750108   5.978950   5.880613   5.827835   4.917866
    32  H    8.797065   8.157734   8.337132   8.191552   7.178977
    33  H    9.503064   9.243954   9.589575   9.296474   8.208905
    34  H    8.442653   8.570002   8.909240   8.514810   7.469514
    35  H    6.274895   6.525796   6.663638   6.270860   5.330137
    36  H    2.186162   3.387155   4.620780   5.071246   5.090594
    37  H    2.163163   2.848884   5.009775   5.718755   5.614995
    38  H    1.096861   2.166303   3.503516   4.508723   5.062906
    39  H    1.096212   2.195550   4.850475   5.974495   6.353653
    40  H    2.183920   1.097193   2.944083   4.432271   5.039739
    41  H    2.168337   1.096900   4.172479   5.491311   5.762542
    42  H    3.080444   2.845610   1.096605   2.152382   3.030170
    43  H    4.489952   3.722128   1.096785   2.167678   3.179666
    44  H    5.274594   5.212003   2.757389   2.797073   3.973519
    45  H    6.399561   5.940807   3.003058   2.831568   3.932133
    46  H    6.943322   6.856835   4.014295   3.420436   4.406464
    47  H    6.819018   6.885880   4.202168   2.740469   2.675503
    48  H    7.630495   7.625968   4.664699   3.403454   3.836280
    49  H    7.623315   7.344743   4.275070   2.825809   2.860509
                   21         22         23         24         25
    21  N    0.000000
    22  C    1.472693   0.000000
    23  C    1.473098   2.525593   0.000000
    24  H    6.566638   7.099427   7.516265   0.000000
    25  H    6.556067   7.009374   7.688363   1.806363   0.000000
    26  H    6.145649   6.930562   7.026125   1.807242   1.717977
    27  H    5.727319   6.395273   6.791697   3.577261   2.246140
    28  H    3.875837   4.760011   4.712557   5.801028   4.954240
    29  H    4.731994   6.052107   4.973909   5.742425   5.465124
    30  H    4.981579   6.131770   5.552811   4.011891   3.813205
    31  H    7.140650   8.295739   7.567864   4.078179   4.310536
    32  H    9.450450  10.683601   9.696052   6.137994   6.423150
    33  H   10.466348  11.797403  10.542372   8.299026   8.278851
    34  H    9.556607  10.897236   9.560587   8.888065   8.549581
    35  H    7.277185   8.565706   7.390375   7.614002   7.100300
    36  H    5.889728   6.497686   6.712723   7.441168   6.154167
    37  H    6.808038   7.445804   7.741085   6.615048   5.147784
    38  H    5.180385   5.278906   6.382450   6.827665   5.477317
    39  H    6.826901   6.978729   8.026574   7.080238   5.447508
    40  H    5.351149   5.339009   6.747052   4.973290   3.577062
    41  H    6.622864   6.872271   7.903912   4.906307   3.172374
    42  H    2.855466   3.047371   4.220522   5.532704   4.782394
    43  H    2.747308   2.657044   4.171918   4.726608   4.435830
    44  H    2.112239   1.096871   3.315324   7.221528   6.859218
    45  H    2.108731   1.096916   3.158231   6.606142   6.678419
    46  H    2.123540   1.096727   2.578436   8.133600   8.100385
    47  H    2.111638   3.331529   1.097057   7.799774   7.862519
    48  H    2.123544   2.585381   1.097025   8.465199   8.616995
    49  H    2.109254   3.134791   1.096836   7.236159   7.663218
                   26         27         28         29         30
    26  H    0.000000
    27  H    2.217545   0.000000
    28  H    4.490301   3.012245   0.000000
    29  H    4.217003   3.816778   2.549241   0.000000
    30  H    2.447821   2.580263   2.910561   1.775861   0.000000
    31  H    2.670959   3.877734   5.177367   3.546773   2.362492
    32  H    4.944981   6.061570   7.316200   5.377450   4.689749
    33  H    6.835810   7.341915   7.944070   5.875236   5.884781
    34  H    7.186787   7.020731   6.772266   4.870176   5.550243
    35  H    5.859569   5.249207   4.368330   2.710997   3.791759
    36  H    6.018401   3.994939   2.370176   4.246005   4.726854
    37  H    5.128990   3.041196   3.036733   4.436979   4.366956
    38  H    5.897001   3.878869   2.859145   5.368412   5.308631
    39  H    6.072587   3.889513   3.912749   6.115256   5.847938
    40  H    4.507218   2.888336   3.663421   5.722883   4.917829
    41  H    4.108496   2.216931   3.977318   5.662372   4.724768
    42  H    4.910651   3.674274   2.382872   4.473151   4.257862
    43  H    4.673760   4.174447   3.767361   5.227617   4.605903
    44  H    6.960948   6.101715   4.426498   6.140082   6.215792
    45  H    6.711134   6.425722   5.283877   6.475989   6.272412
    46  H    7.976172   7.452756   5.612768   6.805810   7.054774
    47  H    7.063361   6.697617   4.332932   4.370670   5.270919
    48  H    8.053610   7.738029   5.551691   5.995508   6.626936
    49  H    6.881769   6.997961   5.263342   5.113612   5.529075
                   31         32         33         34         35
    31  H    0.000000
    32  H    2.483530   0.000000
    33  H    4.310712   2.491197   0.000000
    34  H    4.982352   4.314717   2.491406   0.000000
    35  H    4.320952   4.981898   4.312887   2.487543   0.000000
    36  H    6.597867   8.370546   8.542979   7.017311   4.756110
    37  H    5.777507   7.411799   7.746811   6.590845   4.670378
    38  H    7.361595   9.508582  10.203735   9.025356   6.719303
    39  H    7.517461   9.434701  10.059289   8.985071   6.938346
    40  H    6.649864   8.932602  10.163679   9.545721   7.449255
    41  H    6.024588   8.042098   9.177671   8.678004   6.846504
    42  H    6.502531   8.903265   9.956226   9.048314   6.695195
    43  H    6.593677   9.075275  10.489533   9.934714   7.731339
    44  H    8.464813  10.875534  11.922426  10.919171   8.516642
    45  H    8.287033  10.710902  12.033853  11.345258   9.089568
    46  H    9.214840  11.555103  12.583557  11.593199   9.259052
    47  H    7.292547   9.295457   9.908384   8.752251   6.582254
    48  H    8.664331  10.785190  11.581686  10.514707   8.321888
    49  H    7.315277   9.382397  10.365672   9.604221   7.595745
                   36         37         38         39         40
    36  H    0.000000
    37  H    1.785006   0.000000
    38  H    2.403665   3.047662   0.000000
    39  H    2.690543   2.414968   1.781856   0.000000
    40  H    4.175086   3.895126   2.363727   2.742761   0.000000
    41  H    3.971932   2.954913   3.027807   2.376664   1.773534
    42  H    3.901589   4.526104   2.548126   4.082875   2.592331
    43  H    5.567340   5.907300   4.100202   5.424428   3.151291
    44  H    5.859822   6.858651   4.418986   6.137517   4.671741
    45  H    7.122168   7.863862   5.727552   7.322185   5.325575
    46  H    7.249143   8.340349   6.104879   7.849771   6.358711
    47  H    6.219735   7.330681   6.272650   7.861152   6.915378
    48  H    7.376851   8.537578   6.918253   8.635277   7.403883
    49  H    7.427016   8.285272   7.126531   8.698455   7.210542
                   41         42         43         44         45
    41  H    0.000000
    42  H    3.920874   0.000000
    43  H    4.612775   1.762442   0.000000
    44  H    6.264729   2.495429   2.535834   0.000000
    45  H    6.901671   3.371345   2.366212   1.791066   0.000000
    46  H    7.909282   4.044819   3.743137   1.781718   1.785533
    47  H    7.899045   4.391759   4.711239   3.897275   4.087510
    48  H    8.680341   4.848007   4.787544   3.387493   3.291483
    49  H    8.307903   4.819738   4.454564   4.067580   3.444146
                   46         47         48         49
    46  H    0.000000
    47  H    3.425007   0.000000
    48  H    2.163960   1.782283   0.000000
    49  H    3.231531   1.791021   1.786969   0.000000
 Stoichiometry    C18H26N2O3
 Framework group  C1[X(C18H26N2O3)]
 Deg. of freedom   141
 Full point group                 C1      NOp   1
 Largest Abelian subgroup         C1      NOp   1
 Largest concise Abelian subgroup C1      NOp   1
                         Standard orientation:                         
 ---------------------------------------------------------------------
 Center     Atomic      Atomic             Coordinates (Angstroms)
 Number     Number       Type             X           Y           Z
 ---------------------------------------------------------------------
      1          6           0       -0.135136    1.243519    3.068847
      2          6           0       -1.313933    0.630330    2.311393
      3          8           0       -2.134941   -0.028713    2.922620
      4          7           0       -1.439349    0.818642    0.913157
      5          6           0       -0.569899    1.756162    0.141715
      6          6           0       -0.018475    1.211560   -1.217025
      7          8           0        1.350751    0.798228   -1.079401
      8          6           0        1.556696   -0.445242   -0.387640
      9          6           0        3.050097   -0.657540   -0.184937
     10          6           0        3.601434   -0.664529    1.111955
     11          6           0        4.980435   -0.865033    1.295502
     12          6           0        5.816229   -1.059636    0.183394
     13          6           0        5.273630   -1.054081   -1.111997
     14          6           0        3.894599   -0.854067   -1.295347
     15          6           0       -0.059370    2.400314   -2.184171
     16          6           0       -1.274038    3.208708   -1.728471
     17          6           0       -1.282279    3.088691   -0.197219
     18          6           0       -2.602061    0.197804    0.215901
     19          6           0       -2.400842   -1.289637   -0.166327
     20          8           0       -1.293279   -1.799507   -0.125719
     21          7           0       -3.508209   -2.020374   -0.640052
     22          6           0       -4.879684   -1.492384   -0.544632
     23          6           0       -3.333598   -3.424234   -1.050787
     24          1           0       -0.153221    0.990071    4.135094
     25          1           0       -0.134945    2.328566    2.922227
     26          1           0        0.802351    0.924742    2.602535
     27          1           0        0.305812    2.022883    0.741072
     28          1           0       -0.648480    0.407172   -1.615286
     29          1           0        1.153281   -1.278998   -0.975662
     30          1           0        1.054397   -0.441608    0.587247
     31          1           0        2.962709   -0.516368    1.977974
     32          1           0        5.400076   -0.869913    2.297618
     33          1           0        6.882323   -1.214448    0.325232
     34          1           0        5.919716   -1.203622   -1.972675
     35          1           0        3.479557   -0.847393   -2.299164
     36          1           0       -0.156874    2.074374   -3.226649
     37          1           0        0.849964    3.006399   -2.084785
     38          1           0       -2.187228    2.759617   -2.137747
     39          1           0       -1.218292    4.252853   -2.057615
     40          1           0       -2.306560    3.126940    0.194214
     41          1           0       -0.722381    3.922807    0.243184
     42          1           0       -2.823482    0.751026   -0.704676
     43          1           0       -3.486235    0.281514    0.859458
     44          1           0       -4.939664   -0.523908   -1.056082
     45          1           0       -5.149148   -1.365392    0.511061
     46          1           0       -5.592349   -2.181243   -1.014092
     47          1           0       -2.525490   -3.494213   -1.789433
     48          1           0       -4.255560   -3.811522   -1.501850
     49          1           0       -3.080441   -4.032498   -0.173873
 ---------------------------------------------------------------------
 Rotational constants (GHZ):      0.3296926      0.1483247      0.1380936
 Standard basis: 6-31G(d,p) (6D, 7F)
 There are   475 symmetry adapted basis functions of A   symmetry.
 Integral buffers will be    131072 words long.
 Raffenetti 2 integral format.
 Two-electron integral symmetry is turned on.
   475 basis functions,   826 primitive gaussians,   475 cartesian basis functions
    86 alpha electrons       86 beta electrons
       nuclear repulsion energy      2005.8994219819 Hartrees.
 NAtoms=   49 NActive=   49 NUniq=   49 SFac= 1.00D+00 NAtFMM=   60 NAOKFM=F Big=F
 One-electron integrals computed using PRISM.
 NBasis=   475 RedAO= T  NBF=   475
 NBsUse=   475 1.00D-06 NBFU=   475
 Harris functional with IExCor=  402 diagonalized for initial guess.
 ExpMin= 1.61D-01 ExpMax= 5.48D+03 ExpMxC= 8.25D+02 IAcc=1 IRadAn=         1 AccDes= 0.00D+00
 HarFok:  IExCor=  402 AccDes= 0.00D+00 IRadAn=         1 IDoV= 1
 ScaDFX=  1.000000  1.000000  1.000000  1.000000
 FoFCou: FMM=F IPFlag=           0 FMFlag=      100000 FMFlg1=           0
         NFxFlg=           0 DoJE=T BraDBF=F KetDBF=T FulRan=T
         Omega=  0.000000  0.000000  1.000000  0.000000  0.000000 ICntrl=     500 IOpCl=  0
         NMat0=    1 NMatS0=    1 NMatT0=    0 NMatD0=    1 NMtDS0=    0 NMtDT0=    0
         I1Cent=           4 NGrid=           0.
 Petite list used in FoFCou.
 Initial guess orbital symmetries:
       Occupied  (A) (A) (A) (A) (A) (A) (A) (A) (A) (A) (A) (A)
                 (A) (A) (A) (A) (A) (A) (A) (A) (A) (A) (A) (A)
                 (A) (A) (A) (A) (A) (A) (A) (A) (A) (A) (A) (A)
                 (A) (A) (A) (A) (A) (A) (A) (A) (A) (A) (A) (A)
                 (A) (A) (A) (A) (A) (A) (A) (A) (A) (A) (A) (A)
                 (A) (A) (A) (A) (A) (A) (A) (A) (A) (A) (A) (A)
                 (A) (A) (A) (A) (A) (A) (A) (A) (A) (A) (A) (A)
                 (A) (A)
       Virtual   (A) (A) (A) (A) (A) (A) (A) (A) (A) (A) (A) (A)
                 (A) (A) (A) (A) (A) (A) (A) (A) (A) (A) (A) (A)
                 (A) (A) (A) (A) (A) (A) (A) (A) (A) (A) (A) (A)
                 (A) (A) (A) (A) (A) (A) (A) (A) (A) (A) (A) (A)
                 (A) (A) (A) (A) (A) (A) (A) (A) (A) (A) (A) (A)
                 (A) (A) (A) (A) (A) (A) (A) (A) (A) (A) (A) (A)
                 (A) (A) (A) (A) (A) (A) (A) (A) (A) (A) (A) (A)
                 (A) (A) (A) (A) (A) (A) (A) (A) (A) (A) (A) (A)
                 (A) (A) (A) (A) (A) (A) (A) (A) (A) (A) (A) (A)
                 (A) (A) (A) (A) (A) (A) (A) (A) (A) (A) (A) (A)
                 (A) (A) (A) (A) (A) (A) (A) (A) (A) (A) (A) (A)
                 (A) (A) (A) (A) (A) (A) (A) (A) (A) (A) (A) (A)
                 (A) (A) (A) (A) (A) (A) (A) (A) (A) (A) (A) (A)
                 (A) (A) (A) (A) (A) (A) (A) (A) (A) (A) (A) (A)
                 (A) (A) (A) (A) (A) (A) (A) (A) (A) (A) (A) (A)
                 (A) (A) (A) (A) (A) (A) (A) (A) (A) (A) (A) (A)
                 (A) (A) (A) (A) (A) (A) (A) (A) (A) (A) (A) (A)
                 (A) (A) (A) (A) (A) (A) (A) (A) (A) (A) (A) (A)
                 (A) (A) (A) (A) (A) (A) (A) (A) (A) (A) (A) (A)
                 (A) (A) (A) (A) (A) (A) (A) (A) (A) (A) (A) (A)
                 (A) (A) (A) (A) (A) (A) (A) (A) (A) (A) (A) (A)
                 (A) (A) (A) (A) (A) (A) (A) (A) (A) (A) (A) (A)
                 (A) (A) (A) (A) (A) (A) (A) (A) (A) (A) (A) (A)
                 (A) (A) (A) (A) (A) (A) (A) (A) (A) (A) (A) (A)
                 (A) (A) (A) (A) (A) (A) (A) (A) (A) (A) (A) (A)
                 (A) (A) (A) (A) (A) (A) (A) (A) (A) (A) (A) (A)
                 (A) (A) (A) (A) (A) (A) (A) (A) (A) (A) (A) (A)
                 (A) (A) (A) (A) (A) (A) (A) (A) (A) (A) (A) (A)
                 (A) (A) (A) (A) (A) (A) (A) (A) (A) (A) (A) (A)
                 (A) (A) (A) (A) (A) (A) (A) (A) (A) (A) (A) (A)
                 (A) (A) (A) (A) (A) (A) (A) (A) (A) (A) (A) (A)
                 (A) (A) (A) (A) (A) (A) (A) (A) (A) (A) (A) (A)
                 (A) (A) (A) (A) (A)
 The electronic state of the initial guess is 1-A.
 Requested convergence on RMS density matrix=1.00D-08 within 128 cycles.
 Requested convergence on MAX density matrix=1.00D-06.
 Requested convergence on             energy=1.00D-06.
 No special actions if energy rises.
 Integral accuracy reduced to 1.0D-05 until final iterations.
 Initial convergence to 1.0D-05 achieved.  Increase integral accuracy.
 SCF Done:  E(RB3LYP) =  -1036.77590683     A.U. after   14 cycles
             Convg  =    0.7180D-08             -V/T =  2.0100

 **********************************************************************

            Population analysis using the SCF density.

 **********************************************************************

 Orbital symmetries:
       Occupied  (A) (A) (A) (A) (A) (A) (A) (A) (A) (A) (A) (A)
                 (A) (A) (A) (A) (A) (A) (A) (A) (A) (A) (A) (A)
                 (A) (A) (A) (A) (A) (A) (A) (A) (A) (A) (A) (A)
                 (A) (A) (A) (A) (A) (A) (A) (A) (A) (A) (A) (A)
                 (A) (A) (A) (A) (A) (A) (A) (A) (A) (A) (A) (A)
                 (A) (A) (A) (A) (A) (A) (A) (A) (A) (A) (A) (A)
                 (A) (A) (A) (A) (A) (A) (A) (A) (A) (A) (A) (A)
                 (A) (A)
       Virtual   (A) (A) (A) (A) (A) (A) (A) (A) (A) (A) (A) (A)
                 (A) (A) (A) (A) (A) (A) (A) (A) (A) (A) (A) (A)
                 (A) (A) (A) (A) (A) (A) (A) (A) (A) (A) (A) (A)
                 (A) (A) (A) (A) (A) (A) (A) (A) (A) (A) (A) (A)
                 (A) (A) (A) (A) (A) (A) (A) (A) (A) (A) (A) (A)
                 (A) (A) (A) (A) (A) (A) (A) (A) (A) (A) (A) (A)
                 (A) (A) (A) (A) (A) (A) (A) (A) (A) (A) (A) (A)
                 (A) (A) (A) (A) (A) (A) (A) (A) (A) (A) (A) (A)
                 (A) (A) (A) (A) (A) (A) (A) (A) (A) (A) (A) (A)
                 (A) (A) (A) (A) (A) (A) (A) (A) (A) (A) (A) (A)
                 (A) (A) (A) (A) (A) (A) (A) (A) (A) (A) (A) (A)
                 (A) (A) (A) (A) (A) (A) (A) (A) (A) (A) (A) (A)
                 (A) (A) (A) (A) (A) (A) (A) (A) (A) (A) (A) (A)
                 (A) (A) (A) (A) (A) (A) (A) (A) (A) (A) (A) (A)
                 (A) (A) (A) (A) (A) (A) (A) (A) (A) (A) (A) (A)
                 (A) (A) (A) (A) (A) (A) (A) (A) (A) (A) (A) (A)
                 (A) (A) (A) (A) (A) (A) (A) (A) (A) (A) (A) (A)
                 (A) (A) (A) (A) (A) (A) (A) (A) (A) (A) (A) (A)
                 (A) (A) (A) (A) (A) (A) (A) (A) (A) (A) (A) (A)
                 (A) (A) (A) (A) (A) (A) (A) (A) (A) (A) (A) (A)
                 (A) (A) (A) (A) (A) (A) (A) (A) (A) (A) (A) (A)
                 (A) (A) (A) (A) (A) (A) (A) (A) (A) (A) (A) (A)
                 (A) (A) (A) (A) (A) (A) (A) (A) (A) (A) (A) (A)
                 (A) (A) (A) (A) (A) (A) (A) (A) (A) (A) (A) (A)
                 (A) (A) (A) (A) (A) (A) (A) (A) (A) (A) (A) (A)
                 (A) (A) (A) (A) (A) (A) (A) (A) (A) (A) (A) (A)
                 (A) (A) (A) (A) (A) (A) (A) (A) (A) (A) (A) (A)
                 (A) (A) (A) (A) (A) (A) (A) (A) (A) (A) (A) (A)
                 (A) (A) (A) (A) (A) (A) (A) (A) (A) (A) (A) (A)
                 (A) (A) (A) (A) (A) (A) (A) (A) (A) (A) (A) (A)
                 (A) (A) (A) (A) (A) (A) (A) (A) (A) (A) (A) (A)
                 (A) (A) (A) (A) (A) (A) (A) (A) (A) (A) (A) (A)
                 (A) (A) (A) (A) (A)
 The electronic state is 1-A.
 Alpha  occ. eigenvalues --  -19.13742 -19.11316 -19.10486 -14.36483 -14.36096
 Alpha  occ. eigenvalues --  -10.28723 -10.28342 -10.23712 -10.23368 -10.23111
 Alpha  occ. eigenvalues --  -10.22530 -10.21969 -10.21659 -10.19016 -10.18684
 Alpha  occ. eigenvalues --  -10.18665 -10.18619 -10.18381 -10.18348 -10.18302
 Alpha  occ. eigenvalues --  -10.18287 -10.18112 -10.18086  -1.03318  -1.02389
 Alpha  occ. eigenvalues --   -1.01315  -0.92194  -0.91540  -0.84030  -0.82771
 Alpha  occ. eigenvalues --   -0.75747  -0.75413  -0.73195  -0.72917  -0.72036
 Alpha  occ. eigenvalues --   -0.70898  -0.69974  -0.66925  -0.65117  -0.59432
 Alpha  occ. eigenvalues --   -0.58485  -0.57317  -0.56623  -0.56069  -0.52740
 Alpha  occ. eigenvalues --   -0.50542  -0.50051  -0.49853  -0.49432  -0.47863
 Alpha  occ. eigenvalues --   -0.46939  -0.46485  -0.45689  -0.45293  -0.44532
 Alpha  occ. eigenvalues --   -0.43627  -0.43444  -0.41968  -0.41602  -0.41514
 Alpha  occ. eigenvalues --   -0.41380  -0.40990  -0.40849  -0.40271  -0.40153
 Alpha  occ. eigenvalues --   -0.39509  -0.38094  -0.37672  -0.36654  -0.36197
 Alpha  occ. eigenvalues --   -0.35342  -0.34980  -0.34416  -0.34272  -0.34110
 Alpha  occ. eigenvalues --   -0.33104  -0.32797  -0.32216  -0.30274  -0.25929
 Alpha  occ. eigenvalues --   -0.25038  -0.24060  -0.23948  -0.23633  -0.23340
 Alpha  occ. eigenvalues --   -0.22165
 Alpha virt. eigenvalues --    0.00239   0.00649   0.02189   0.03098   0.06125
 Alpha virt. eigenvalues --    0.06989   0.08447   0.08728   0.10477   0.10911
 Alpha virt. eigenvalues --    0.11343   0.12052   0.12733   0.13182   0.13773
 Alpha virt. eigenvalues --    0.14552   0.14773   0.14985   0.15411   0.15779
 Alpha virt. eigenvalues --    0.16083   0.16544   0.17204   0.17405   0.17788
 Alpha virt. eigenvalues --    0.17989   0.18737   0.18889   0.19315   0.19644
 Alpha virt. eigenvalues --    0.20205   0.20781   0.21571   0.22167   0.22976
 Alpha virt. eigenvalues --    0.23342   0.23848   0.24651   0.25753   0.26727
 Alpha virt. eigenvalues --    0.26870   0.27368   0.30022   0.30613   0.30954
 Alpha virt. eigenvalues --    0.31219   0.32759   0.33878   0.34869   0.35433
 Alpha virt. eigenvalues --    0.36335   0.37776   0.39389   0.47234   0.47918
 Alpha virt. eigenvalues --    0.48179   0.49789   0.50075   0.50975   0.51977
 Alpha virt. eigenvalues --    0.52547   0.53590   0.54381   0.54610   0.55630
 Alpha virt. eigenvalues --    0.55912   0.56221   0.56856   0.57287   0.57443
 Alpha virt. eigenvalues --    0.58032   0.59122   0.60022   0.60185   0.60936
 Alpha virt. eigenvalues --    0.61430   0.61720   0.61907   0.62233   0.62689
 Alpha virt. eigenvalues --    0.63496   0.63667   0.64273   0.64627   0.65689
 Alpha virt. eigenvalues --    0.66452   0.67138   0.67749   0.68283   0.68603
 Alpha virt. eigenvalues --    0.70184   0.70687   0.71254   0.72590   0.73706
 Alpha virt. eigenvalues --    0.74869   0.75656   0.76731   0.76995   0.77766
 Alpha virt. eigenvalues --    0.79361   0.80155   0.80586   0.81415   0.82536
 Alpha virt. eigenvalues --    0.82759   0.82874   0.83210   0.83386   0.84209
 Alpha virt. eigenvalues --    0.84826   0.85268   0.85764   0.86190   0.86858
 Alpha virt. eigenvalues --    0.87649   0.88282   0.89267   0.89687   0.89968
 Alpha virt. eigenvalues --    0.90236   0.90978   0.91926   0.91940   0.92957
 Alpha virt. eigenvalues --    0.93853   0.94083   0.94670   0.95224   0.95546
 Alpha virt. eigenvalues --    0.95674   0.97601   0.98763   0.99242   1.00466
 Alpha virt. eigenvalues --    1.00670   1.01412   1.03458   1.04349   1.06071
 Alpha virt. eigenvalues --    1.07764   1.08349   1.09790   1.11532   1.11940
 Alpha virt. eigenvalues --    1.12168   1.13683   1.15009   1.16458   1.17471
 Alpha virt. eigenvalues --    1.18251   1.19414   1.21850   1.23224   1.24483
 Alpha virt. eigenvalues --    1.26100   1.27174   1.28096   1.28973   1.31420
 Alpha virt. eigenvalues --    1.32846   1.34539   1.36229   1.36746   1.37328
 Alpha virt. eigenvalues --    1.38340   1.39703   1.40027   1.41246   1.42657
 Alpha virt. eigenvalues --    1.43136   1.43966   1.45180   1.45435   1.48842
 Alpha virt. eigenvalues --    1.51567   1.52271   1.53647   1.55163   1.57843
 Alpha virt. eigenvalues --    1.61464   1.62532   1.63782   1.64501   1.66430
 Alpha virt. eigenvalues --    1.67185   1.68690   1.69967   1.71953   1.72309
 Alpha virt. eigenvalues --    1.72562   1.74453   1.75224   1.75551   1.77574
 Alpha virt. eigenvalues --    1.77743   1.78333   1.80113   1.80375   1.81211
 Alpha virt. eigenvalues --    1.82586   1.83539   1.84182   1.84771   1.85201
 Alpha virt. eigenvalues --    1.86529   1.87607   1.87791   1.89133   1.89797
 Alpha virt. eigenvalues --    1.90475   1.91076   1.91642   1.92726   1.92867
 Alpha virt. eigenvalues --    1.93586   1.93790   1.95200   1.96159   1.96478
 Alpha virt. eigenvalues --    1.97244   1.97573   1.97886   1.98192   1.98867
 Alpha virt. eigenvalues --    2.00015   2.00642   2.01122   2.01382   2.02374
 Alpha virt. eigenvalues --    2.02587   2.03197   2.03508   2.04164   2.05289
 Alpha virt. eigenvalues --    2.06070   2.06617   2.06949   2.08713   2.09474
 Alpha virt. eigenvalues --    2.09879   2.10830   2.12236   2.12473   2.13820
 Alpha virt. eigenvalues --    2.15001   2.15681   2.16900   2.19214   2.20428
 Alpha virt. eigenvalues --    2.22320   2.24239   2.25136   2.26643   2.27232
 Alpha virt. eigenvalues --    2.29047   2.29089   2.29435   2.30112   2.31401
 Alpha virt. eigenvalues --    2.32820   2.33055   2.33620   2.34700   2.34829
 Alpha virt. eigenvalues --    2.35637   2.37616   2.38057   2.39154   2.39668
 Alpha virt. eigenvalues --    2.40912   2.41232   2.42387   2.42886   2.44151
 Alpha virt. eigenvalues --    2.44791   2.44979   2.46699   2.47550   2.48940
 Alpha virt. eigenvalues --    2.49356   2.50395   2.50630   2.52029   2.52842
 Alpha virt. eigenvalues --    2.53867   2.54739   2.54962   2.55933   2.57462
 Alpha virt. eigenvalues --    2.57847   2.59824   2.60375   2.60598   2.62690
 Alpha virt. eigenvalues --    2.63868   2.64055   2.64300   2.64984   2.66341
 Alpha virt. eigenvalues --    2.67400   2.67757   2.68974   2.70855   2.70967
 Alpha virt. eigenvalues --    2.72952   2.73384   2.74331   2.75424   2.75971
 Alpha virt. eigenvalues --    2.77147   2.79399   2.80080   2.80208   2.81115
 Alpha virt. eigenvalues --    2.81880   2.82309   2.83101   2.84038   2.85877
 Alpha virt. eigenvalues --    2.86533   2.86699   2.87287   2.90656   2.91796
 Alpha virt. eigenvalues --    2.92820   2.94658   2.98742   2.99257   3.00838
 Alpha virt. eigenvalues --    3.01627   3.03872   3.05663   3.09035   3.09710
 Alpha virt. eigenvalues --    3.10762   3.11530   3.13988   3.17379   3.19396
 Alpha virt. eigenvalues --    3.22174   3.22679   3.24437   3.25796   3.26916
 Alpha virt. eigenvalues --    3.29053   3.30520   3.31252   3.34229   3.35272
 Alpha virt. eigenvalues --    3.39466   3.40065   3.40839   3.42606   3.43217
 Alpha virt. eigenvalues --    3.43705   3.44293   3.44497   3.45358   3.48129
 Alpha virt. eigenvalues --    3.49207   3.49643   3.51325   3.51602   3.52240
 Alpha virt. eigenvalues --    3.88524   3.95433   4.03094   4.08564   4.11156
 Alpha virt. eigenvalues --    4.13505   4.16653   4.17340   4.19307   4.32004
 Alpha virt. eigenvalues --    4.33397   4.39089   4.40883   4.44533   4.47226
 Alpha virt. eigenvalues --    4.48578   4.50825   4.53503   4.56464   4.64835
 Alpha virt. eigenvalues --    4.74502   4.76069   4.83427   4.85339
          Condensed to atoms (all electrons):
              1          2          3          4          5          6
     1  C    5.152370   0.349453  -0.082071  -0.112265   0.001605  -0.000202
     2  C    0.349453   4.358665   0.590985   0.237392  -0.019735   0.001505
     3  O   -0.082071   0.590985   8.066618  -0.098595   0.002023  -0.000052
     4  N   -0.112265   0.237392  -0.098595   7.121708   0.261871  -0.038382
     5  C    0.001605  -0.019735   0.002023   0.261871   5.013508   0.346678
     6  C   -0.000202   0.001505  -0.000052  -0.038382   0.346678   4.779460
     7  O   -0.000125   0.000129   0.000000   0.002342  -0.054477   0.220017
     8  C   -0.000673  -0.000026   0.000007  -0.000780  -0.002813  -0.019693
     9  C    0.000013   0.000007   0.000000   0.000123  -0.000356   0.004467
    10  C   -0.000257   0.000004   0.000000  -0.000005  -0.000035   0.000026
    11  C    0.000001   0.000000   0.000000   0.000000   0.000001   0.000002
    12  C    0.000000   0.000000   0.000000   0.000000   0.000000   0.000000
    13  C    0.000000   0.000000   0.000000   0.000000   0.000000   0.000004
    14  C    0.000000   0.000000   0.000000  -0.000002   0.000041   0.000043
    15  C    0.000008  -0.000071   0.000001   0.003438  -0.073187   0.364456
    16  C    0.000023  -0.000089   0.000000   0.003166  -0.047670  -0.057768
    17  C   -0.000725   0.000119   0.000027  -0.059750   0.325776  -0.074942
    18  C    0.005554  -0.028149   0.004885   0.269231  -0.029702  -0.004572
    19  C   -0.000104   0.001711   0.001121  -0.041881  -0.000720  -0.000598
    20  O    0.000011   0.003786  -0.000681   0.002621  -0.002042   0.000186
    21  N   -0.000001   0.000158  -0.000122   0.002053  -0.000089   0.000028
    22  C    0.000000  -0.000066  -0.000047   0.000153   0.000008   0.000000
    23  C    0.000000  -0.000009   0.000001  -0.000057   0.000002  -0.000001
    24  H    0.373023  -0.019029   0.003212   0.003459   0.000312  -0.000006
    25  H    0.354565  -0.022124   0.001665   0.002243  -0.001652   0.000180
    26  H    0.358317  -0.025539   0.001623   0.003519  -0.003114   0.000025
    27  H    0.006402  -0.009464   0.000122  -0.033646   0.370590  -0.037629
    28  H   -0.000026   0.000095  -0.000002  -0.005277  -0.063315   0.364471
    29  H   -0.000002   0.000011   0.000000   0.000187  -0.001844  -0.006883
    30  H   -0.000320   0.000754  -0.000142   0.000891   0.008193  -0.006349
    31  H    0.000025  -0.000004   0.000000  -0.000016  -0.000018  -0.000007
    32  H    0.000000   0.000000   0.000000   0.000000   0.000000   0.000000
    33  H    0.000000   0.000000   0.000000   0.000000   0.000000   0.000000
    34  H    0.000000   0.000000   0.000000   0.000000   0.000000   0.000000
    35  H    0.000000   0.000000   0.000000   0.000000   0.000006  -0.000090
    36  H    0.000000   0.000000   0.000000  -0.000099   0.005293  -0.026460
    37  H   -0.000003   0.000003   0.000000   0.000018  -0.005519  -0.032026
    38  H   -0.000001   0.000011   0.000000   0.000382  -0.001766  -0.000521
    39  H    0.000000   0.000001   0.000000  -0.000082   0.004708   0.004684
    40  H    0.000014   0.000338  -0.000079  -0.005386  -0.030192   0.003283
    41  H   -0.000156   0.000315  -0.000002   0.004050  -0.029947   0.003642
    42  H   -0.000059   0.004521   0.000656  -0.033765  -0.004252  -0.000989
    43  H    0.000484  -0.002675   0.014377  -0.036929   0.002532   0.000044
    44  H    0.000000  -0.000008   0.000001   0.000028  -0.000003  -0.000005
    45  H    0.000000   0.000039   0.000052   0.000035   0.000000   0.000000
    46  H    0.000000   0.000000   0.000000  -0.000003   0.000000   0.000000
    47  H    0.000000  -0.000001   0.000000  -0.000003   0.000000  -0.000005
    48  H    0.000000   0.000000   0.000000   0.000001   0.000000   0.000000
    49  H    0.000000   0.000003  -0.000001   0.000003   0.000000   0.000000
              7          8          9         10         11         12
     1  C   -0.000125  -0.000673   0.000013  -0.000257   0.000001   0.000000
     2  C    0.000129  -0.000026   0.000007   0.000004   0.000000   0.000000
     3  O    0.000000   0.000007   0.000000   0.000000   0.000000   0.000000
     4  N    0.002342  -0.000780   0.000123  -0.000005   0.000000   0.000000
     5  C   -0.054477  -0.002813  -0.000356  -0.000035   0.000001   0.000000
     6  C    0.220017  -0.019693   0.004467   0.000026   0.000002   0.000000
     7  O    8.319493   0.204324  -0.045669   0.000286  -0.000074   0.000005
     8  C    0.204324   4.851314   0.333059  -0.040899   0.006236   0.000319
     9  C   -0.045669   0.333059   4.786414   0.547158  -0.026997  -0.033506
    10  C    0.000286  -0.040899   0.547158   4.899403   0.513766  -0.039053
    11  C   -0.000074   0.006236  -0.026997   0.513766   4.835219   0.547811
    12  C    0.000005   0.000319  -0.033506  -0.039053   0.547811   4.812474
    13  C    0.000133   0.005019  -0.025145  -0.042658  -0.030589   0.541639
    14  C    0.005497  -0.051516   0.517332  -0.045417  -0.041928  -0.038497
    15  C   -0.041319   0.004939  -0.000165   0.000000   0.000000   0.000000
    16  C    0.002400  -0.000200   0.000002   0.000000   0.000000   0.000000
    17  C    0.004489   0.000242   0.000012   0.000000   0.000000   0.000000
    18  C   -0.000174  -0.000273  -0.000015   0.000001   0.000000   0.000000
    19  C    0.000037   0.000358   0.000009  -0.000001   0.000000   0.000000
    20  O   -0.000101  -0.001239   0.000385  -0.000009   0.000000   0.000000
    21  N    0.000000   0.000018   0.000000   0.000000   0.000000   0.000000
    22  C    0.000000   0.000000   0.000000   0.000000   0.000000   0.000000
    23  C    0.000000  -0.000003   0.000000   0.000000   0.000000   0.000000
    24  H   -0.000001   0.000000   0.000001  -0.000007   0.000000   0.000000
    25  H   -0.000011   0.000040  -0.000002   0.000009   0.000000   0.000000
    26  H    0.000033   0.000369  -0.000045   0.000151   0.000008   0.000000
    27  H    0.006491  -0.000909  -0.000328   0.000097   0.000000   0.000000
    28  H   -0.032041  -0.007238   0.000105   0.000003   0.000000   0.000000
    29  H   -0.038185   0.365091  -0.029320   0.003347  -0.000298   0.000021
    30  H   -0.037327   0.359268  -0.036602  -0.009177   0.000231  -0.000013
    31  H    0.000067  -0.009642  -0.041555   0.362867  -0.043305   0.004576
    32  H    0.000000  -0.000163   0.003886  -0.037655   0.364716  -0.041641
    33  H    0.000000   0.000005   0.000606   0.004756  -0.041916   0.367970
    34  H    0.000000  -0.000158   0.003838   0.000802   0.004488  -0.042117
    35  H    0.002946  -0.007543  -0.045309   0.005269   0.000371   0.004757
    36  H    0.001631  -0.000137   0.000002   0.000000   0.000000   0.000000
    37  H    0.003162  -0.000153  -0.000028   0.000000   0.000000   0.000000
    38  H   -0.000016   0.000003   0.000000   0.000000   0.000000   0.000000
    39  H   -0.000067   0.000002   0.000000   0.000000   0.000000   0.000000
    40  H   -0.000063  -0.000003   0.000000   0.000000   0.000000   0.000000
    41  H   -0.000093  -0.000005  -0.000001   0.000000   0.000000   0.000000
    42  H    0.000019   0.000013   0.000000   0.000000   0.000000   0.000000
    43  H   -0.000001   0.000001   0.000000   0.000000   0.000000   0.000000
    44  H    0.000000   0.000000   0.000000   0.000000   0.000000   0.000000
    45  H    0.000000   0.000000   0.000000   0.000000   0.000000   0.000000
    46  H    0.000000   0.000000   0.000000   0.000000   0.000000   0.000000
    47  H    0.000000  -0.000004   0.000000   0.000000   0.000000   0.000000
    48  H    0.000000   0.000000   0.000000   0.000000   0.000000   0.000000
    49  H    0.000000   0.000000   0.000000   0.000000   0.000000   0.000000
             13         14         15         16         17         18
     1  C    0.000000   0.000000   0.000008   0.000023  -0.000725   0.005554
     2  C    0.000000   0.000000  -0.000071  -0.000089   0.000119  -0.028149
     3  O    0.000000   0.000000   0.000001   0.000000   0.000027   0.004885
     4  N    0.000000  -0.000002   0.003438   0.003166  -0.059750   0.269231
     5  C    0.000000   0.000041  -0.073187  -0.047670   0.325776  -0.029702
     6  C    0.000004   0.000043   0.364456  -0.057768  -0.074942  -0.004572
     7  O    0.000133   0.005497  -0.041319   0.002400   0.004489  -0.000174
     8  C    0.005019  -0.051516   0.004939  -0.000200   0.000242  -0.000273
     9  C   -0.025145   0.517332  -0.000165   0.000002   0.000012  -0.000015
    10  C   -0.042658  -0.045417   0.000000   0.000000   0.000000   0.000001
    11  C   -0.030589  -0.041928   0.000000   0.000000   0.000000   0.000000
    12  C    0.541639  -0.038497   0.000000   0.000000   0.000000   0.000000
    13  C    4.836880   0.519206   0.000000   0.000000   0.000000   0.000000
    14  C    0.519206   4.892473  -0.000021   0.000001   0.000000   0.000000
    15  C    0.000000  -0.000021   5.023969   0.340970  -0.058740  -0.000185
    16  C    0.000000   0.000001   0.340970   4.976298   0.348647  -0.000422
    17  C    0.000000   0.000000  -0.058740   0.348647   5.058006  -0.006084
    18  C    0.000000   0.000000  -0.000185  -0.000422  -0.006084   5.086236
    19  C    0.000000   0.000000   0.000065   0.000038  -0.000171   0.297792
    20  O    0.000000  -0.000002   0.000054   0.000000   0.000001  -0.087965
    21  N    0.000000   0.000000   0.000000  -0.000001   0.000004  -0.111752
    22  C    0.000000   0.000000   0.000000   0.000000   0.000001   0.003336
    23  C    0.000000   0.000000   0.000000   0.000000   0.000000   0.005695
    24  H    0.000000   0.000000   0.000000   0.000000  -0.000015  -0.000085
    25  H    0.000000   0.000000   0.000000  -0.000013   0.000663  -0.000241
    26  H    0.000000   0.000002  -0.000002  -0.000003   0.000104  -0.000130
    27  H    0.000000  -0.000009   0.000202   0.004922  -0.039121   0.004110
    28  H    0.000000  -0.000046  -0.043664   0.001748   0.004461   0.002974
    29  H   -0.000110  -0.009657   0.000001  -0.000009   0.000012   0.000183
    30  H   -0.000148   0.007130  -0.000073   0.000046  -0.000121  -0.000471
    31  H    0.000388   0.005630   0.000000   0.000000   0.000000   0.000000
    32  H    0.004387   0.000830   0.000000   0.000000   0.000000   0.000000
    33  H   -0.041924   0.004619   0.000000   0.000000   0.000000   0.000000
    34  H    0.365641  -0.038249   0.000000   0.000000   0.000000   0.000000
    35  H   -0.043785   0.369911   0.000008   0.000000   0.000000   0.000000
    36  H    0.000000   0.000002   0.375851  -0.031443   0.005231   0.000012
    37  H    0.000000  -0.000001   0.374916  -0.034985   0.000527  -0.000001
    38  H    0.000000   0.000000  -0.038969   0.383567  -0.040006  -0.000764
    39  H    0.000000   0.000000  -0.028091   0.378531  -0.029291   0.000018
    40  H    0.000000   0.000000   0.004516  -0.029144   0.371801   0.002875
    41  H    0.000000   0.000000   0.000599  -0.035989   0.377331  -0.000039
    42  H    0.000000   0.000000  -0.000439  -0.000174   0.002642   0.363988
    43  H    0.000000   0.000000   0.000006  -0.000036   0.000617   0.362541
    44  H    0.000000   0.000000   0.000000  -0.000003  -0.000001   0.001737
    45  H    0.000000   0.000000   0.000000   0.000000   0.000000  -0.000116
    46  H    0.000000   0.000000   0.000000   0.000000   0.000000  -0.000112
    47  H    0.000000   0.000000   0.000000   0.000000   0.000000   0.000076
    48  H    0.000000   0.000000   0.000000   0.000000   0.000000  -0.000044
    49  H    0.000000   0.000000   0.000000   0.000000   0.000000  -0.000028
             19         20         21         22         23         24
     1  C   -0.000104   0.000011  -0.000001   0.000000   0.000000   0.373023
     2  C    0.001711   0.003786   0.000158  -0.000066  -0.000009  -0.019029
     3  O    0.001121  -0.000681  -0.000122  -0.000047   0.000001   0.003212
     4  N   -0.041881   0.002621   0.002053   0.000153  -0.000057   0.003459
     5  C   -0.000720  -0.002042  -0.000089   0.000008   0.000002   0.000312
     6  C   -0.000598   0.000186   0.000028   0.000000  -0.000001  -0.000006
     7  O    0.000037  -0.000101   0.000000   0.000000   0.000000  -0.000001
     8  C    0.000358  -0.001239   0.000018   0.000000  -0.000003   0.000000
     9  C    0.000009   0.000385   0.000000   0.000000   0.000000   0.000001
    10  C   -0.000001  -0.000009   0.000000   0.000000   0.000000  -0.000007
    11  C    0.000000   0.000000   0.000000   0.000000   0.000000   0.000000
    12  C    0.000000   0.000000   0.000000   0.000000   0.000000   0.000000
    13  C    0.000000   0.000000   0.000000   0.000000   0.000000   0.000000
    14  C    0.000000  -0.000002   0.000000   0.000000   0.000000   0.000000
    15  C    0.000065   0.000054   0.000000   0.000000   0.000000   0.000000
    16  C    0.000038   0.000000  -0.000001   0.000000   0.000000   0.000000
    17  C   -0.000171   0.000001   0.000004   0.000001   0.000000  -0.000015
    18  C    0.297792  -0.087965  -0.111752   0.003336   0.005695  -0.000085
    19  C    4.443531   0.574675   0.256380  -0.027853  -0.019843   0.000001
    20  O    0.574675   8.073021  -0.098246   0.002640   0.008657   0.000000
    21  N    0.256380  -0.098246   7.086091   0.280676   0.279019   0.000000
    22  C   -0.027853   0.002640   0.280676   4.805975  -0.048448   0.000000
    23  C   -0.019843   0.008657   0.279019  -0.048448   4.774652   0.000000
    24  H    0.000001   0.000000   0.000000   0.000000   0.000000   0.538991
    25  H    0.000006   0.000000   0.000000   0.000000   0.000000  -0.022310
    26  H   -0.000008  -0.000009   0.000000   0.000000   0.000000  -0.021454
    27  H   -0.000054  -0.000020   0.000001   0.000000   0.000000   0.000044
    28  H    0.000830   0.005574  -0.000401   0.000005  -0.000016   0.000000
    29  H   -0.000207   0.004193  -0.000030   0.000000   0.000003   0.000000
    30  H    0.000239   0.003955   0.000024   0.000000  -0.000002   0.000048
    31  H    0.000000   0.000000   0.000000   0.000000   0.000000   0.000025
    32  H    0.000000   0.000000   0.000000   0.000000   0.000000   0.000000
    33  H    0.000000   0.000000   0.000000   0.000000   0.000000   0.000000
    34  H    0.000000   0.000000   0.000000   0.000000   0.000000   0.000000
    35  H    0.000000   0.000000   0.000000   0.000000   0.000000   0.000000
    36  H    0.000001  -0.000001   0.000000   0.000000   0.000000   0.000000
    37  H   -0.000002   0.000000   0.000000   0.000000   0.000000   0.000000
    38  H   -0.000035   0.000001  -0.000002   0.000000   0.000000   0.000000
    39  H    0.000000   0.000000   0.000000   0.000000   0.000000   0.000000
    40  H    0.000154   0.000002   0.000002   0.000000   0.000000   0.000005
    41  H   -0.000003   0.000000   0.000000   0.000000   0.000000  -0.000006
    42  H   -0.038317  -0.000158   0.002749  -0.001381  -0.000164   0.000001
    43  H   -0.033560   0.001859   0.001349   0.002351  -0.000217  -0.000009
    44  H   -0.005861   0.000027  -0.042509   0.385365   0.003531   0.000000
    45  H   -0.004609   0.000072  -0.047166   0.388886   0.002825   0.000000
    46  H    0.002234  -0.000076  -0.026536   0.385349  -0.007557   0.000000
    47  H   -0.003689   0.006182  -0.040043   0.003870   0.388988   0.000000
    48  H    0.004410   0.000575  -0.031296  -0.007416   0.378706   0.000000
    49  H   -0.004422   0.002798  -0.046635   0.002764   0.393742   0.000000
             25         26         27         28         29         30
     1  C    0.354565   0.358317   0.006402  -0.000026  -0.000002  -0.000320
     2  C   -0.022124  -0.025539  -0.009464   0.000095   0.000011   0.000754
     3  O    0.001665   0.001623   0.000122  -0.000002   0.000000  -0.000142
     4  N    0.002243   0.003519  -0.033646  -0.005277   0.000187   0.000891
     5  C   -0.001652  -0.003114   0.370590  -0.063315  -0.001844   0.008193
     6  C    0.000180   0.000025  -0.037629   0.364471  -0.006883  -0.006349
     7  O   -0.000011   0.000033   0.006491  -0.032041  -0.038185  -0.037327
     8  C    0.000040   0.000369  -0.000909  -0.007238   0.365091   0.359268
     9  C   -0.000002  -0.000045  -0.000328   0.000105  -0.029320  -0.036602
    10  C    0.000009   0.000151   0.000097   0.000003   0.003347  -0.009177
    11  C    0.000000   0.000008   0.000000   0.000000  -0.000298   0.000231
    12  C    0.000000   0.000000   0.000000   0.000000   0.000021  -0.000013
    13  C    0.000000   0.000000   0.000000   0.000000  -0.000110  -0.000148
    14  C    0.000000   0.000002  -0.000009  -0.000046  -0.009657   0.007130
    15  C    0.000000  -0.000002   0.000202  -0.043664   0.000001  -0.000073
    16  C   -0.000013  -0.000003   0.004922   0.001748  -0.000009   0.000046
    17  C    0.000663   0.000104  -0.039121   0.004461   0.000012  -0.000121
    18  C   -0.000241  -0.000130   0.004110   0.002974   0.000183  -0.000471
    19  C    0.000006  -0.000008  -0.000054   0.000830  -0.000207   0.000239
    20  O    0.000000  -0.000009  -0.000020   0.005574   0.004193   0.003955
    21  N    0.000000   0.000000   0.000001  -0.000401  -0.000030   0.000024
    22  C    0.000000   0.000000   0.000000   0.000005   0.000000   0.000000
    23  C    0.000000   0.000000   0.000000  -0.000016   0.000003  -0.000002
    24  H   -0.022310  -0.021454   0.000044   0.000000   0.000000   0.000048
    25  H    0.594951  -0.033232  -0.000253  -0.000002  -0.000001  -0.000035
    26  H   -0.033232   0.575384   0.001773  -0.000005   0.000003   0.002207
    27  H   -0.000253   0.001773   0.606423   0.006067   0.000455  -0.001563
    28  H   -0.000002  -0.000005   0.006067   0.668363   0.009771  -0.002384
    29  H   -0.000001   0.000003   0.000455   0.009771   0.638245  -0.050751
    30  H   -0.000035   0.002207  -0.001563  -0.002384  -0.050751   0.657100
    31  H   -0.000014   0.002589   0.000015   0.000000   0.000147   0.005402
    32  H    0.000000  -0.000002   0.000000   0.000000   0.000003  -0.000001
    33  H    0.000000   0.000000   0.000000   0.000000   0.000000   0.000000
    34  H    0.000000   0.000000   0.000000   0.000000   0.000001   0.000002
    35  H    0.000000   0.000000   0.000000  -0.000008   0.001887   0.000225
    36  H    0.000000   0.000000  -0.000156  -0.007759   0.000007  -0.000001
    37  H    0.000000   0.000000   0.001429   0.005932   0.000058  -0.000019
    38  H    0.000001   0.000000  -0.000090   0.001213   0.000000  -0.000001
    39  H    0.000000   0.000000  -0.000303  -0.000220   0.000000   0.000000
    40  H    0.000046   0.000004   0.003290  -0.000283  -0.000001   0.000011
    41  H    0.000545  -0.000010  -0.011825  -0.000128   0.000000   0.000002
    42  H   -0.000005  -0.000008   0.000186   0.000984  -0.000005   0.000020
    43  H   -0.000039  -0.000011  -0.000157   0.000172   0.000000   0.000016
    44  H    0.000000   0.000000   0.000000   0.000012   0.000000   0.000000
    45  H    0.000000   0.000000   0.000000  -0.000002   0.000000   0.000000
    46  H    0.000000   0.000000   0.000000   0.000000   0.000000   0.000000
    47  H    0.000000   0.000000   0.000000   0.000047   0.000034  -0.000002
    48  H    0.000000   0.000000   0.000000   0.000000   0.000000   0.000000
    49  H    0.000000   0.000000   0.000000  -0.000002  -0.000002   0.000000
             31         32         33         34         35         36
     1  C    0.000025   0.000000   0.000000   0.000000   0.000000   0.000000
     2  C   -0.000004   0.000000   0.000000   0.000000   0.000000   0.000000
     3  O    0.000000   0.000000   0.000000   0.000000   0.000000   0.000000
     4  N   -0.000016   0.000000   0.000000   0.000000   0.000000  -0.000099
     5  C   -0.000018   0.000000   0.000000   0.000000   0.000006   0.005293
     6  C   -0.000007   0.000000   0.000000   0.000000  -0.000090  -0.026460
     7  O    0.000067   0.000000   0.000000   0.000000   0.002946   0.001631
     8  C   -0.009642  -0.000163   0.000005  -0.000158  -0.007543  -0.000137
     9  C   -0.041555   0.003886   0.000606   0.003838  -0.045309   0.000002
    10  C    0.362867  -0.037655   0.004756   0.000802   0.005269   0.000000
    11  C   -0.043305   0.364716  -0.041916   0.004488   0.000371   0.000000
    12  C    0.004576  -0.041641   0.367970  -0.042117   0.004757   0.000000
    13  C    0.000388   0.004387  -0.041924   0.365641  -0.043785   0.000000
    14  C    0.005630   0.000830   0.004619  -0.038249   0.369911   0.000002
    15  C    0.000000   0.000000   0.000000   0.000000   0.000008   0.375851
    16  C    0.000000   0.000000   0.000000   0.000000   0.000000  -0.031443
    17  C    0.000000   0.000000   0.000000   0.000000   0.000000   0.005231
    18  C    0.000000   0.000000   0.000000   0.000000   0.000000   0.000012
    19  C    0.000000   0.000000   0.000000   0.000000   0.000000   0.000001
    20  O    0.000000   0.000000   0.000000   0.000000   0.000000  -0.000001
    21  N    0.000000   0.000000   0.000000   0.000000   0.000000   0.000000
    22  C    0.000000   0.000000   0.000000   0.000000   0.000000   0.000000
    23  C    0.000000   0.000000   0.000000   0.000000   0.000000   0.000000
    24  H    0.000025   0.000000   0.000000   0.000000   0.000000   0.000000
    25  H   -0.000014   0.000000   0.000000   0.000000   0.000000   0.000000
    26  H    0.002589  -0.000002   0.000000   0.000000   0.000000   0.000000
    27  H    0.000015   0.000000   0.000000   0.000000   0.000000  -0.000156
    28  H    0.000000   0.000000   0.000000   0.000000  -0.000008  -0.007759
    29  H    0.000147   0.000003   0.000000   0.000001   0.001887   0.000007
    30  H    0.005402  -0.000001   0.000000   0.000002   0.000225  -0.000001
    31  H    0.637190  -0.005693  -0.000181   0.000016  -0.000165   0.000000
    32  H   -0.005693   0.634501  -0.006030  -0.000187   0.000016   0.000000
    33  H   -0.000181  -0.006030   0.636307  -0.005964  -0.000178   0.000000
    34  H    0.000016  -0.000187  -0.005964   0.634535  -0.005785   0.000000
    35  H   -0.000165   0.000016  -0.000178  -0.005785   0.629949   0.000004
    36  H    0.000000   0.000000   0.000000   0.000000   0.000004   0.613037
    37  H    0.000000   0.000000   0.000000   0.000000   0.000002  -0.031000
    38  H    0.000000   0.000000   0.000000   0.000000   0.000000  -0.007650
    39  H    0.000000   0.000000   0.000000   0.000000   0.000000   0.001353
    40  H    0.000000   0.000000   0.000000   0.000000   0.000000  -0.000202
    41  H    0.000000   0.000000   0.000000   0.000000   0.000000  -0.000096
    42  H    0.000000   0.000000   0.000000   0.000000   0.000000  -0.000015
    43  H    0.000000   0.000000   0.000000   0.000000   0.000000  -0.000001
    44  H    0.000000   0.000000   0.000000   0.000000   0.000000   0.000000
    45  H    0.000000   0.000000   0.000000   0.000000   0.000000   0.000000
    46  H    0.000000   0.000000   0.000000   0.000000   0.000000   0.000000
    47  H    0.000000   0.000000   0.000000   0.000000   0.000000   0.000000
    48  H    0.000000   0.000000   0.000000   0.000000   0.000000   0.000000
    49  H    0.000000   0.000000   0.000000   0.000000   0.000000   0.000000
             37         38         39         40         41         42
     1  C   -0.000003  -0.000001   0.000000   0.000014  -0.000156  -0.000059
     2  C    0.000003   0.000011   0.000001   0.000338   0.000315   0.004521
     3  O    0.000000   0.000000   0.000000  -0.000079  -0.000002   0.000656
     4  N    0.000018   0.000382  -0.000082  -0.005386   0.004050  -0.033765
     5  C   -0.005519  -0.001766   0.004708  -0.030192  -0.029947  -0.004252
     6  C   -0.032026  -0.000521   0.004684   0.003283   0.003642  -0.000989
     7  O    0.003162  -0.000016  -0.000067  -0.000063  -0.000093   0.000019
     8  C   -0.000153   0.000003   0.000002  -0.000003  -0.000005   0.000013
     9  C   -0.000028   0.000000   0.000000   0.000000  -0.000001   0.000000
    10  C    0.000000   0.000000   0.000000   0.000000   0.000000   0.000000
    11  C    0.000000   0.000000   0.000000   0.000000   0.000000   0.000000
    12  C    0.000000   0.000000   0.000000   0.000000   0.000000   0.000000
    13  C    0.000000   0.000000   0.000000   0.000000   0.000000   0.000000
    14  C   -0.000001   0.000000   0.000000   0.000000   0.000000   0.000000
    15  C    0.374916  -0.038969  -0.028091   0.004516   0.000599  -0.000439
    16  C   -0.034985   0.383567   0.378531  -0.029144  -0.035989  -0.000174
    17  C    0.000527  -0.040006  -0.029291   0.371801   0.377331   0.002642
    18  C   -0.000001  -0.000764   0.000018   0.002875  -0.000039   0.363988
    19  C   -0.000002  -0.000035   0.000000   0.000154  -0.000003  -0.038317
    20  O    0.000000   0.000001   0.000000   0.000002   0.000000  -0.000158
    21  N    0.000000  -0.000002   0.000000   0.000002   0.000000   0.002749
    22  C    0.000000   0.000000   0.000000   0.000000   0.000000  -0.001381
    23  C    0.000000   0.000000   0.000000   0.000000   0.000000  -0.000164
    24  H    0.000000   0.000000   0.000000   0.000005  -0.000006   0.000001
    25  H    0.000000   0.000001   0.000000   0.000046   0.000545  -0.000005
    26  H    0.000000   0.000000   0.000000   0.000004  -0.000010  -0.000008
    27  H    0.001429  -0.000090  -0.000303   0.003290  -0.011825   0.000186
    28  H    0.005932   0.001213  -0.000220  -0.000283  -0.000128   0.000984
    29  H    0.000058   0.000000   0.000000  -0.000001   0.000000  -0.000005
    30  H   -0.000019  -0.000001   0.000000   0.000011   0.000002   0.000020
    31  H    0.000000   0.000000   0.000000   0.000000   0.000000   0.000000
    32  H    0.000000   0.000000   0.000000   0.000000   0.000000   0.000000
    33  H    0.000000   0.000000   0.000000   0.000000   0.000000   0.000000
    34  H    0.000000   0.000000   0.000000   0.000000   0.000000   0.000000
    35  H    0.000002   0.000000   0.000000   0.000000   0.000000   0.000000
    36  H   -0.031000  -0.007650   0.001353  -0.000202  -0.000096  -0.000015
    37  H    0.602434   0.005553  -0.008259  -0.000137   0.001609   0.000022
    38  H    0.005553   0.641309  -0.034020  -0.009833   0.005624   0.003346
    39  H   -0.008259  -0.034020   0.618120   0.001986  -0.009035  -0.000022
    40  H   -0.000137  -0.009833   0.001986   0.616484  -0.031501  -0.000179
    41  H    0.001609   0.005624  -0.009035  -0.031501   0.621261   0.000006
    42  H    0.000022   0.003346  -0.000022  -0.000179   0.000006   0.599352
    43  H    0.000000   0.000014   0.000000  -0.000360   0.000003  -0.025656
    44  H    0.000000   0.000007   0.000000   0.000001   0.000000   0.002453
    45  H    0.000000   0.000000   0.000000   0.000000   0.000000  -0.000157
    46  H    0.000000   0.000000   0.000000   0.000000   0.000000  -0.000007
    47  H    0.000000   0.000000   0.000000   0.000000   0.000000   0.000000
    48  H    0.000000   0.000000   0.000000   0.000000   0.000000   0.000003
    49  H    0.000000   0.000000   0.000000   0.000000   0.000000  -0.000006
             43         44         45         46         47         48
     1  C    0.000484   0.000000   0.000000   0.000000   0.000000   0.000000
     2  C   -0.002675  -0.000008   0.000039   0.000000  -0.000001   0.000000
     3  O    0.014377   0.000001   0.000052   0.000000   0.000000   0.000000
     4  N   -0.036929   0.000028   0.000035  -0.000003  -0.000003   0.000001
     5  C    0.002532  -0.000003   0.000000   0.000000   0.000000   0.000000
     6  C    0.000044  -0.000005   0.000000   0.000000  -0.000005   0.000000
     7  O   -0.000001   0.000000   0.000000   0.000000   0.000000   0.000000
     8  C    0.000001   0.000000   0.000000   0.000000  -0.000004   0.000000
     9  C    0.000000   0.000000   0.000000   0.000000   0.000000   0.000000
    10  C    0.000000   0.000000   0.000000   0.000000   0.000000   0.000000
    11  C    0.000000   0.000000   0.000000   0.000000   0.000000   0.000000
    12  C    0.000000   0.000000   0.000000   0.000000   0.000000   0.000000
    13  C    0.000000   0.000000   0.000000   0.000000   0.000000   0.000000
    14  C    0.000000   0.000000   0.000000   0.000000   0.000000   0.000000
    15  C    0.000006   0.000000   0.000000   0.000000   0.000000   0.000000
    16  C   -0.000036  -0.000003   0.000000   0.000000   0.000000   0.000000
    17  C    0.000617  -0.000001   0.000000   0.000000   0.000000   0.000000
    18  C    0.362541   0.001737  -0.000116  -0.000112   0.000076  -0.000044
    19  C   -0.033560  -0.005861  -0.004609   0.002234  -0.003689   0.004410
    20  O    0.001859   0.000027   0.000072  -0.000076   0.006182   0.000575
    21  N    0.001349  -0.042509  -0.047166  -0.026536  -0.040043  -0.031296
    22  C    0.002351   0.385365   0.388886   0.385349   0.003870  -0.007416
    23  C   -0.000217   0.003531   0.002825  -0.007557   0.388988   0.378706
    24  H   -0.000009   0.000000   0.000000   0.000000   0.000000   0.000000
    25  H   -0.000039   0.000000   0.000000   0.000000   0.000000   0.000000
    26  H   -0.000011   0.000000   0.000000   0.000000   0.000000   0.000000
    27  H   -0.000157   0.000000   0.000000   0.000000   0.000000   0.000000
    28  H    0.000172   0.000012  -0.000002   0.000000   0.000047   0.000000
    29  H    0.000000   0.000000   0.000000   0.000000   0.000034   0.000000
    30  H    0.000016   0.000000   0.000000   0.000000  -0.000002   0.000000
    31  H    0.000000   0.000000   0.000000   0.000000   0.000000   0.000000
    32  H    0.000000   0.000000   0.000000   0.000000   0.000000   0.000000
    33  H    0.000000   0.000000   0.000000   0.000000   0.000000   0.000000
    34  H    0.000000   0.000000   0.000000   0.000000   0.000000   0.000000
    35  H    0.000000   0.000000   0.000000   0.000000   0.000000   0.000000
    36  H   -0.000001   0.000000   0.000000   0.000000   0.000000   0.000000
    37  H    0.000000   0.000000   0.000000   0.000000   0.000000   0.000000
    38  H    0.000014   0.000007   0.000000   0.000000   0.000000   0.000000
    39  H    0.000000   0.000000   0.000000   0.000000   0.000000   0.000000
    40  H   -0.000360   0.000001   0.000000   0.000000   0.000000   0.000000
    41  H    0.000003   0.000000   0.000000   0.000000   0.000000   0.000000
    42  H   -0.025656   0.002453  -0.000157  -0.000007   0.000000   0.000003
    43  H    0.565798  -0.001446   0.002600   0.000149  -0.000010  -0.000004
    44  H   -0.001446   0.606440  -0.042580  -0.026271  -0.000046   0.000445
    45  H    0.002600  -0.042580   0.592754  -0.030749  -0.000301  -0.000082
    46  H    0.000149  -0.026271  -0.030749   0.579027   0.000347   0.004463
    47  H   -0.000010  -0.000046  -0.000301   0.000347   0.573442  -0.028754
    48  H   -0.000004   0.000445  -0.000082   0.004463  -0.028754   0.609510
    49  H    0.000008  -0.000310   0.000812  -0.000108  -0.036234  -0.034965
             49
     1  C    0.000000
     2  C    0.000003
     3  O   -0.000001
     4  N    0.000003
     5  C    0.000000
     6  C    0.000000
     7  O    0.000000
     8  C    0.000000
     9  C    0.000000
    10  C    0.000000
    11  C    0.000000
    12  C    0.000000
    13  C    0.000000
    14  C    0.000000
    15  C    0.000000
    16  C    0.000000
    17  C    0.000000
    18  C   -0.000028
    19  C   -0.004422
    20  O    0.002798
    21  N   -0.046635
    22  C    0.002764
    23  C    0.393742
    24  H    0.000000
    25  H    0.000000
    26  H    0.000000
    27  H    0.000000
    28  H   -0.000002
    29  H   -0.000002
    30  H    0.000000
    31  H    0.000000
    32  H    0.000000
    33  H    0.000000
    34  H    0.000000
    35  H    0.000000
    36  H    0.000000
    37  H    0.000000
    38  H    0.000000
    39  H    0.000000
    40  H    0.000000
    41  H    0.000000
    42  H   -0.000006
    43  H    0.000008
    44  H   -0.000310
    45  H    0.000812
    46  H   -0.000108
    47  H   -0.036234
    48  H   -0.034965
    49  H    0.587199
 Mulliken atomic charges:
              1
     1  C   -0.404879
     2  C    0.576983
     3  O   -0.505583
     4  N   -0.451991
     5  C    0.029299
     6  C    0.213978
     7  O   -0.523757
     8  C    0.013442
     9  C    0.087624
    10  C   -0.122773
    11  C   -0.087743
    12  C   -0.084745
    13  C   -0.088937
    14  C   -0.097371
    15  C   -0.209073
    16  C   -0.202413
    17  C   -0.191746
    18  C   -0.139918
    19  C    0.598345
    20  O   -0.500726
    21  N   -0.463724
    22  C   -0.176166
    23  C   -0.159504
    24  H    0.143798
    25  H    0.125021
    26  H    0.137462
    27  H    0.122907
    28  H    0.089991
    29  H    0.113644
    30  H    0.099737
    31  H    0.081664
    32  H    0.083031
    33  H    0.081930
    34  H    0.083137
    35  H    0.087511
    36  H    0.102595
    37  H    0.116469
    38  H    0.092645
    39  H    0.099987
    40  H    0.102549
    41  H    0.103849
    42  H    0.124795
    43  H    0.146190
    44  H    0.118993
    45  H    0.137687
    46  H    0.119850
    47  H    0.136105
    48  H    0.104448
    49  H    0.135383
 Sum of Mulliken atomic charges =   0.00000
 Mulliken charges with hydrogens summed into heavy atoms:
              1
     1  C    0.001401
     2  C    0.576983
     3  O   -0.505583
     4  N   -0.451991
     5  C    0.152206
     6  C    0.303969
     7  O   -0.523757
     8  C    0.226823
     9  C    0.087624
    10  C   -0.041109
    11  C   -0.004712
    12  C   -0.002816
    13  C   -0.005800
    14  C   -0.009859
    15  C    0.009991
    16  C   -0.009781
    17  C    0.014651
    18  C    0.131066
    19  C    0.598345
    20  O   -0.500726
    21  N   -0.463724
    22  C    0.200365
    23  C    0.216434
 Sum of Mulliken charges with hydrogens summed into heavy atoms =   0.00000
 Electronic spatial extent (au):  <R**2>=           8865.8137
 Charge=              0.0000 electrons
 Dipole moment (field-independent basis, Debye):
    X=             -2.8572    Y=              1.4422    Z=             -2.4984  Tot=              4.0602
 Quadrupole moment (field-independent basis, Debye-Ang):
   XX=           -119.7765   YY=           -132.3047   ZZ=           -138.7273
   XY=              3.1692   XZ=             13.8049   YZ=              5.8640
 Traceless Quadrupole moment (field-independent basis, Debye-Ang):
   XX=             10.4930   YY=             -2.0352   ZZ=             -8.4578
   XY=              3.1692   XZ=             13.8049   YZ=              5.8640
 Octapole moment (field-independent basis, Debye-Ang**2):
  XXX=            -74.9898  YYY=             -2.6895  ZZZ=            -16.6324  XYY=            -45.9961
  XXY=            -54.9948  XXZ=            -30.9685  XZZ=             30.2600  YZZ=              2.0034
  YYZ=             -6.2727  XYZ=             -6.7567
 Hexadecapole moment (field-independent basis, Debye-Ang**3):
 XXXX=          -6740.7692 YYYY=          -2485.1271 ZZZZ=          -1853.4772 XXXY=            116.8717
 XXXZ=             89.5420 YYYX=            172.8524 YYYZ=             28.0560 ZZZX=             74.5445
 ZZZY=             37.4568 XXYY=          -1635.8143 XXZZ=          -1553.6974 YYZZ=           -716.5914
 XXYZ=             57.4918 YYXZ=             18.2525 ZZXY=             -2.4797
 N-N= 2.005899421982D+03 E-N=-6.422877453573D+03  KE= 1.026521794258D+03
 1\1\GINC-C07\SP\RB3LYP\6-31G(d,p)\C18H26N2O3\TUU61186\04-Mar-2026\0\\#
  b3lyp/6-31g(d,p)\\Generated by mdgx\\0,1\C,0,14.9514746,17.9078567,17
 .2719335\C,0,14.8152431,16.7867714,18.3033931\O,0,14.934461,17.0496244
 ,19.4860537\N,0,14.5655017,15.4572555,17.8835463\C,0,14.2358299,15.103
 2396,16.4707481\C,0,14.9693733,13.8476632,15.8943142\O,0,16.0609403,14
 .2424887,15.0474623\C,0,17.2290704,14.7310329,15.7286076\C,0,18.220089
 4,15.2542138,14.6987683\C,0,18.5465472,16.6243446,14.652758\C,0,19.465
 3436,17.1031972,13.7029959\C,0,20.0630234,16.2149053,12.7936424\C,0,19
 .742531,14.8481015,12.8338209\C,0,18.824133,14.3693429,13.7839185\C,0,
 13.9320161,13.127671,15.0250144\C,0,12.6022178,13.4064747,15.7253614\C
 ,0,12.7243878,14.8419484,16.2579921\C,0,14.4454269,14.3961223,18.92425
 94\C,0,15.7979215,13.8168834,19.4083133\O,0,16.8271918,14.0376554,18.7
 917297\N,0,15.8039489,12.9627921,20.5286456\C,0,14.6187406,12.8098379,
 21.3892905\C,0,17.0713132,12.3647106,20.9826313\H,0,15.1726022,18.8741
 45,17.7397313\H,0,14.0373426,17.9612663,16.6716551\H,0,15.7194752,17.6
 377833,16.540372\H,0,14.4963075,15.9374073,15.8122993\H,0,15.2972228,1
 3.1699408,16.6916639\H,0,17.7011822,13.9231074,16.3013456\H,0,16.97025
 91,15.5367554,16.4261383\H,0,18.0905316,17.318459,15.3528769\H,0,19.71
 3705,18.1604258,13.6723045\H,0,20.7731716,16.5850786,12.0592713\H,0,20
 .2037842,14.1606443,12.1301134\H,0,18.5767277,13.3119446,13.8094784\H,
 0,14.1355164,12.0524733,14.9540112\H,0,13.9171251,13.5541669,14.014081
 3\H,0,12.477879,12.7117235,16.5649837\H,0,11.749485,13.2923966,15.0460
 131\H,0,12.1438243,14.9693935,17.1802379\H,0,12.33428,15.5478412,15.51
 45402\H,0,13.8450737,13.5629603,18.5396032\H,0,13.906826,14.8063696,19
 .7871291\H,0,13.7638158,12.4801051,20.7863764\H,0,14.3837945,13.771842
 5,21.8610657\H,0,14.8035217,12.0644788,22.1723007\H,0,17.5555579,11.84
 75774,20.1450064\H,0,16.8895835,11.6389826,21.7849757\H,0,17.7343791,1
 3.1542974,21.356725\\Version=EM64L-G09RevC.01\State=1-A\HF=-1036.77590
 68\RMSD=7.180e-09\Dipole=-1.1024518,-1.1123952,0.3145229\Quadrupole=-0
 .8614747,1.2192189,-0.3577443,2.7698254,-2.7435373,-12.8401162\PG=C01 
 [X(C18H26N2O3)]\\@


 WE DON'T KNOW ONE MILLIONTH OF ONE PERCENT ABOUT
 ANYTHING.
                                     T. A. EDISON.
 Job cpu time:  0 days  0 hours  5 minutes 32.3 seconds.
 File lengths (MBytes):  RWF=    127 Int=      0 D2E=      0 Chk=      9 Scr=      1
 Normal termination of Gaussian 09 at Wed Mar  4 21:01:34 2026.
