      -----------------------------------------------------------      
     |                   =====================                   |     
     |                           x T B                           |     
     |                   =====================                   |     
     |                         S. Grimme                         |     
     |          Mulliken Center for Theoretical Chemistry        |     
     |                    University of Bonn                     |     
      -----------------------------------------------------------      

   * xtb version 6.7.1 (edcfbbe) compiled by 'conda@c0858423619e' on 2025-09-04

   xtb is free software: you can redistribute it and/or modify it under
   the terms of the GNU Lesser General Public License as published by
   the Free Software Foundation, either version 3 of the License, or
   (at your option) any later version.
   
   xtb is distributed in the hope that it will be useful,
   but WITHOUT ANY WARRANTY; without even the implied warranty of
   MERCHANTABILITY or FITNESS FOR A PARTICULAR PURPOSE.  See the
   GNU Lesser General Public License for more details.
   
   Cite this work as:
   * C. Bannwarth, E. Caldeweyher, S. Ehlert, A. Hansen, P. Pracht,
     J. Seibert, S. Spicher, S. Grimme, WIREs Comput. Mol. Sci., 2020, 11,
     e01493. DOI: 10.1002/wcms.1493
   
   for GFN2-xTB:
   * C. Bannwarth, S. Ehlert and S. Grimme., J. Chem. Theory Comput., 2019,
     15, 1652-1671. DOI: 10.1021/acs.jctc.8b01176
   for GFN1-xTB:
   * S. Grimme, C. Bannwarth, P. Shushkov, J. Chem. Theory Comput., 2017,
     13, 1989-2009. DOI: 10.1021/acs.jctc.7b00118
   for GFN0-xTB:
   * P. Pracht, E. Caldeweyher, S. Ehlert, S. Grimme, ChemRxiv, 2019, preprint.
     DOI: 10.26434/chemrxiv.8326202.v1
   for GFN-FF:
   * S. Spicher and S. Grimme, Angew. Chem. Int. Ed., 2020, 59, 15665-15673.
     DOI: 10.1002/anie.202004239
   
   for ALPB and GBSA implicit solvation:
   * S. Ehlert, M. Stahn, S. Spicher, S. Grimme, J. Chem. Theory Comput.,
     2021, 17, 4250-4261. DOI: 10.1021/acs.jctc.1c00471
   
   for ddCOSMO and CPCM-X implicit solvation:
   * M. Stahn, S. Ehlert, S. Grimme, J. Phys. Chem. A,
     2023, XX, XXXX-XXXX. DOI: 10.1021/acs.jpca.3c04382
   
   for DFT-D4:
   * E. Caldeweyher, C. Bannwarth and S. Grimme, J. Chem. Phys., 2017,
     147, 034112. DOI: 10.1063/1.4993215
   * E. Caldeweyher, S. Ehlert, A. Hansen, H. Neugebauer, S. Spicher,
     C. Bannwarth and S. Grimme, J. Chem. Phys., 2019, 150, 154122.
     DOI: 10.1063/1.5090222
   * E. Caldeweyher, J.-M. Mewes, S. Ehlert and S. Grimme, Phys. Chem. Chem. Phys.
     2020, 22, 8499-8512. DOI: 10.1039/D0CP00502A
   
   for sTDA-xTB:
   * S. Grimme and C. Bannwarth, J. Chem. Phys., 2016, 145, 054103.
     DOI: 10.1063/1.4959605
   
   in the mass-spec context:
   * V. Asgeirsson, C. Bauer and S. Grimme, Chem. Sci., 2017, 8, 4879.
     DOI: 10.1039/c7sc00601b
   * J. Koopman and S. Grimme, ACS Omega 2019, 4, 12, 15120-15133.
     DOI: 10.1021/acsomega.9b02011
   
   for metadynamics refer to:
   * S. Grimme, J. Chem. Theory Comput., 2019, 155, 2847-2862
     DOI: 10.1021/acs.jctc.9b00143
   
   for SPH calculations refer to:
   * S. Spicher and S. Grimme, J. Chem. Theory Comput., 2021, 17, 1701-1714
     DOI: 10.1021/acs.jctc.0c01306
   
   for ONIOM refer to:
   * C. Plett, A. Katbashev, S. Ehlert, S. Grimme, M. Bursch,
     Phys. Chem. Chem. Phys., 2023, 25, 17860-17868. DOI: 10.1039/D3CP02178E
   
   for DIPRO refer to:
   * J. Kohn, N. Gildemeister, S. Grimme, D. Fazzi, A. Hansen,
     J. Chem. Phys., 2023, just accepted.
   
   for PTB refer to:
   * S. Grimme, M. Mueller, A. Hansen, J. Chem. Phys., 2023, 158, 124111.
     DOI: 10.1063/5.0137838
   
   with help from (in alphabetical order)
   P. Atkinson, C. Bannwarth, F. Bohle, G. Brandenburg, E. Caldeweyher
   M. Checinski, S. Dohm, S. Ehlert, S. Ehrlich, I. Gerasimov, C. Hölzer
   A. Katbashev, J. Kohn, J. Koopman, C. Lavigne, S. Lehtola, F. März, M. Müller,
   F. Musil, H. Neugebauer, J. Pisarek, C. Plett, P. Pracht, F. Pultar,
   J. Seibert, P. Shushkov, S. Spicher, M. Stahn, M. Steiner, T. Strunk,
   J. Stückrath, T. Rose, and J. Unsleber
   
 * started run on 2026/01/25 at 20:06:33.675     
   ID    Z sym.   atoms
    1    6 C      1, 2, 5-14, 17, 18
    2    8 O      3, 15
    3    7 N      4, 16
    4    1 H      19-44

           -------------------------------------------------
          |                Calculation Setup                |
           -------------------------------------------------

          program call               : xtb /home/tuu61186/STEPs/1_xTB_structureOPT/../0_openBable_SMILES/out/xyz/STEPs_0002.xyz --gfn 2 --opt
          hostname                   : c01
          coordinate file            : /home/tuu61186/STEPs/1_xTB_structureOPT/../0_openBable_SMILES/out/xyz/STEPs_0002.xyz
          omp threads                :                     1


           -------------------------------------------------
          |                 G F N 2 - x T B                 |
           -------------------------------------------------

        Reference                      10.1021/acs.jctc.8b01176
      * Hamiltonian:
        H0-scaling (s, p, d)           1.850000    2.230000    2.230000
        zeta-weighting                 0.500000
      * Dispersion:
        s8                             2.700000
        a1                             0.520000
        a2                             5.000000
        s9                             5.000000
      * Repulsion:
        kExp                           1.500000    1.000000
        rExp                           1.000000
      * Coulomb:
        alpha                          2.000000
        third order                    shell-resolved
        anisotropic                    true
        a3                             3.000000
        a5                             4.000000
        cn-shift                       1.200000
        cn-exp                         4.000000
        max-rad                        5.000000

q/qsh data taken from xtbrestart
CAMM data taken from xtbrestart

          ...................................................
          :                      SETUP                      :
          :.................................................:
          :  # basis functions                  98          :
          :  # atomic orbitals                  98          :
          :  # shells                           62          :
          :  # electrons                       104          :
          :  max. iterations                   250          :
          :  Hamiltonian                  GFN2-xTB          :
          :  restarted?                       true          :
          :  GBSA solvation                  false          :
          :  PC potential                    false          :
          :  electronic temp.          300.0000000     K    :
          :  accuracy                    1.0000000          :
          :  -> integral cutoff          0.2500000E+02      :
          :  -> integral neglect         0.1000000E-07      :
          :  -> SCF convergence          0.1000000E-05 Eh   :
          :  -> wf. convergence          0.1000000E-03 e    :
          :  Broyden damping             0.4000000          :
          :  net charge                          0          :
          :  unpaired electrons                  0          :
          ...................................................

 iter      E             dE          RMSdq      gap      omega  full diag
   1    -57.9522919 -0.579523E+02  0.150E+00    4.17       0.0  T
   2    -57.9568055 -0.451357E-02  0.885E-01    4.23       1.0  T
   3    -57.9565417  0.263769E-03  0.239E-01    4.23       1.0  T
   4    -57.9572630 -0.721300E-03  0.354E-02    4.27       1.0  T
   5    -57.9572814 -0.184157E-04  0.183E-02    4.25       1.0  T
   6    -57.9572825 -0.111464E-05  0.476E-03    4.25       3.2  T
   7    -57.9572828 -0.260682E-06  0.184E-03    4.25       8.2  T
   8    -57.9572828 -0.179196E-07  0.721E-04    4.25      20.9  T
   9    -57.9572828 -0.262223E-08  0.273E-04    4.25      55.3  T

   *** convergence criteria satisfied after 9 iterations ***

         #    Occupation            Energy/Eh            Energy/eV
      -------------------------------------------------------------
         1        2.0000           -0.6872414             -18.7008
       ...           ...                  ...                  ...
        46        2.0000           -0.4277832             -11.6406
        47        2.0000           -0.4207032             -11.4479
        48        2.0000           -0.4185450             -11.3892
        49        2.0000           -0.4007353             -10.9046
        50        2.0000           -0.3860628             -10.5053
        51        2.0000           -0.3812926             -10.3755
        52        2.0000           -0.3711016             -10.0982 (HOMO)
        53                         -0.2148377              -5.8460 (LUMO)
        54                         -0.2031141              -5.5270
        55                         -0.0621583              -1.6914
        56                         -0.0236354              -0.6432
        57                          0.0308452               0.8393
       ...                                ...                  ...
        98                          0.5757419              15.6667
      -------------------------------------------------------------
                  HL-Gap            0.1562639 Eh            4.2522 eV
             Fermi-level           -0.2929696 Eh           -7.9721 eV

 SCC (total)                   0 d,  0 h,  0 min,  0.035 sec
 SCC setup                      ...        0 min,  0.000 sec (  0.541%)
 Dispersion                     ...        0 min,  0.000 sec (  1.132%)
 classical contributions        ...        0 min,  0.000 sec (  0.330%)
 integral evaluation            ...        0 min,  0.005 sec ( 14.554%)
 iterations                     ...        0 min,  0.013 sec ( 38.697%)
 molecular gradient             ...        0 min,  0.015 sec ( 44.346%)
 printout                       ...        0 min,  0.000 sec (  0.374%)

         :::::::::::::::::::::::::::::::::::::::::::::::::::::
         ::                     SUMMARY                     ::
         :::::::::::::::::::::::::::::::::::::::::::::::::::::
         :: total energy             -57.268218803279 Eh    ::
         :: gradient norm              0.070307503166 Eh/a0 ::
         :: HOMO-LUMO gap              4.252157348842 eV    ::
         ::.................................................::
         :: SCC energy               -57.956646348611 Eh    ::
         :: -> isotropic ES            0.079967360196 Eh    ::
         :: -> anisotropic ES          0.010380628596 Eh    ::
         :: -> anisotropic XC          0.023357003665 Eh    ::
         :: -> dispersion             -0.040074981754 Eh    ::
         :: repulsion energy           0.688427545332 Eh    ::
         :: add. restraining           0.000000000000 Eh    ::
         :: total charge               0.000000000000 e     ::
         :::::::::::::::::::::::::::::::::::::::::::::::::::::

      ----------------------------------------------------------- 
     |                   =====================                   |
     |                        A N C O P T                        |
     |                   =====================                   |
     |               Approximate Normal Coordinate               |
     |                Rational Function Optimizer                |
      ----------------------------------------------------------- 
      ----------------------------------------------------------- 
     |                   =====================                   |
     |                        A N C O P T                        |
     |                   =====================                   |
     |               Approximate Normal Coordinate               |
     |                Rational Function Optimizer                |
      ----------------------------------------------------------- 

          ...................................................
          :                      SETUP                      :
          :.................................................:
          :   optimization level            normal          :
          :   max. optcycles                   200          :
          :   ANC micro-cycles                  20          :
          :   degrees of freedom               126          :
          :.................................................:
          :   RF solver                   davidson          :
          :   write xtbopt.log                true          :
          :   linear?                        false          :
          :   energy convergence         0.5000000E-05 Eh   :
          :   grad. convergence          0.1000000E-02 Eh/α :
          :   maxmium RF displ.          1.0000000          :
          :   Hlow (freq-cutoff)         0.1000000E-01      :
          :   Hmax (freq-cutoff)         5.0000000          :
          :   S6 in model hess.         20.0000000          :
          ...................................................

generating ANC from exact Hessian ...
Using Lindh-Hessian (1995)
 Shifting diagonal of input Hessian by    9.6883268393583456E-003
 Lowest  eigenvalues of input Hessian
    0.000000    0.000000    0.000000    0.000000    0.000000    0.000000
    0.010000    0.010289    0.010354    0.010629    0.010921    0.011807
    0.013122    0.013458    0.014495    0.014733    0.016057    0.016781
 Highest eigenvalues
    1.441758    1.521009    1.659391    1.713260    2.145875    2.151263


........................................................................
.............................. CYCLE    1 ..............................
........................................................................

 iter      E             dE          RMSdq      gap      omega  full diag
   1    -57.9572828 -0.579573E+02  0.964E-05    4.25       0.0  T
   2    -57.9572828 -0.933298E-10  0.555E-05    4.25     271.4  T
   3    -57.9572828 -0.222329E-10  0.339E-05    4.25     444.5  T
     SCC iter.                  ...        0 min,  0.005 sec
     gradient                   ...        0 min,  0.015 sec
 * total energy  :   -57.2682188 Eh     change       -0.6900791E-09 Eh
   gradient norm :     0.0703077 Eh/α   predicted     0.0000000E+00 (-100.00%)
   displ. norm   :     0.3884117 α      lambda       -0.1229343E-01
   maximum displ.:     0.1425789 α      in ANC's #25, #10, #31, ...

........................................................................
.............................. CYCLE    2 ..............................
........................................................................

 iter      E             dE          RMSdq      gap      omega  full diag
   1    -57.9912614 -0.579913E+02  0.178E-01    4.48       0.0  T
   2    -57.9914296 -0.168190E-03  0.108E-01    4.45       1.0  T
   3    -57.9914334 -0.382820E-05  0.466E-02    4.46       1.0  T
   4    -57.9914537 -0.202377E-04  0.668E-03    4.44       2.3  T
   5    -57.9914543 -0.662224E-06  0.332E-03    4.45       4.5  T
   6    -57.9914544 -0.482586E-07  0.117E-03    4.45      12.9  T
   7    -57.9914544 -0.526506E-08  0.477E-04    4.45      31.6  T
   8    -57.9914544 -0.129733E-08  0.158E-04    4.45      95.2  T
     SCC iter.                  ...        0 min,  0.011 sec
     gradient                   ...        0 min,  0.015 sec
 * total energy  :   -57.2765279 Eh     change       -0.8309145E-02 Eh
   gradient norm :     0.0209956 Eh/α   predicted    -0.7079137E-02 ( -14.80%)
   displ. norm   :     0.3893980 α      lambda       -0.3709784E-02
   maximum displ.:     0.1806906 α      in ANC's #10, #6, #25, ...

........................................................................
.............................. CYCLE    3 ..............................
........................................................................

 iter      E             dE          RMSdq      gap      omega  full diag
   1    -58.0082758 -0.580083E+02  0.116E-01    4.55       0.0  T
   2    -58.0083981 -0.122252E-03  0.699E-02    4.54       1.0  T
   3    -58.0084042 -0.610589E-05  0.339E-02    4.54       1.0  T
   4    -58.0084061 -0.189392E-05  0.434E-03    4.53       3.5  T
   5    -58.0084066 -0.456029E-06  0.174E-03    4.54       8.7  T
   6    -58.0084066 -0.965157E-08  0.622E-04    4.54      24.2  T
   7    -58.0084066 -0.209160E-08  0.215E-04    4.54      70.2  T
     SCC iter.                  ...        0 min,  0.009 sec
     gradient                   ...        0 min,  0.015 sec
 * total energy  :   -57.2788990 Eh     change       -0.2371036E-02 Eh
   gradient norm :     0.0104665 Eh/α   predicted    -0.2138238E-02 (  -9.82%)
   displ. norm   :     0.3279766 α      lambda       -0.1185246E-02
   maximum displ.:     0.1551345 α      in ANC's #10, #6, #11, ...

........................................................................
.............................. CYCLE    4 ..............................
........................................................................

 iter      E             dE          RMSdq      gap      omega  full diag
   1    -58.0117998 -0.580118E+02  0.792E-02    4.55       0.0  T
   2    -58.0118474 -0.476171E-04  0.472E-02    4.55       1.0  T
   3    -58.0118495 -0.207178E-05  0.212E-02    4.55       1.0  T
   4    -58.0118504 -0.886397E-06  0.196E-03    4.55       7.7  T
   5    -58.0118504 -0.565015E-07  0.894E-04    4.55      16.9  T
   6    -58.0118504 -0.300553E-08  0.298E-04    4.55      50.6  T
     SCC iter.                  ...        0 min,  0.008 sec
     gradient                   ...        0 min,  0.015 sec
 * total energy  :   -57.2797583 Eh     change       -0.8592725E-03 Eh
   gradient norm :     0.0067838 Eh/α   predicted    -0.6564390E-03 ( -23.61%)
   displ. norm   :     0.3927197 α      lambda       -0.8997628E-03
   maximum displ.:     0.2011627 α      in ANC's #6, #3, #10, ...

........................................................................
.............................. CYCLE    5 ..............................
........................................................................

 iter      E             dE          RMSdq      gap      omega  full diag
   1    -58.0124566 -0.580125E+02  0.835E-02    4.54       0.0  T
   2    -58.0124754 -0.187588E-04  0.491E-02    4.55       1.0  T
   3    -58.0124753  0.612589E-07  0.139E-02    4.55       1.1  T
   4    -58.0124769 -0.160367E-05  0.185E-03    4.55       8.1  T
   5    -58.0124769 -0.275371E-07  0.979E-04    4.55      15.4  T
   6    -58.0124769 -0.532284E-08  0.340E-04    4.55      44.4  T
     SCC iter.                  ...        0 min,  0.008 sec
     gradient                   ...        0 min,  0.015 sec
 * total energy  :   -57.2804181 Eh     change       -0.6598621E-03 Eh
   gradient norm :     0.0077905 Eh/α   predicted    -0.5192735E-03 ( -21.31%)
   displ. norm   :     0.4009858 α      lambda       -0.6920623E-03
   maximum displ.:     0.2024307 α      in ANC's #6, #3, #4, ...

........................................................................
.............................. CYCLE    6 ..............................
........................................................................

 iter      E             dE          RMSdq      gap      omega  full diag
   1    -58.0112506 -0.580113E+02  0.822E-02    4.54       0.0  T
   2    -58.0112552 -0.459783E-05  0.483E-02    4.55       1.0  T
   3    -58.0112548  0.367053E-06  0.670E-03    4.55       2.3  T
   4    -58.0112559 -0.110329E-05  0.166E-03    4.55       9.1  T
   5    -58.0112559 -0.189610E-07  0.875E-04    4.55      17.2  T
   6    -58.0112559 -0.428737E-08  0.320E-04    4.55      47.2  T
     SCC iter.                  ...        0 min,  0.008 sec
     gradient                   ...        0 min,  0.015 sec
 * total energy  :   -57.2809593 Eh     change       -0.5412224E-03 Eh
   gradient norm :     0.0104933 Eh/α   predicted    -0.4016792E-03 ( -25.78%)
   displ. norm   :     0.4492634 α      lambda       -0.7393201E-03
   maximum displ.:     0.2277713 α      in ANC's #3, #6, #2, ...

........................................................................
.............................. CYCLE    7 ..............................
........................................................................

 iter      E             dE          RMSdq      gap      omega  full diag
   1    -58.0106123 -0.580106E+02  0.853E-02    4.53       0.0  T
   2    -58.0106178 -0.556152E-05  0.497E-02    4.54       1.0  T
   3    -58.0106171  0.736009E-06  0.855E-03    4.54       1.8  T
   4    -58.0106187 -0.159521E-05  0.173E-03    4.54       8.7  T
   5    -58.0106187 -0.320965E-07  0.972E-04    4.54      15.5  T
   6    -58.0106187 -0.383580E-08  0.306E-04    4.54      49.2  T
     SCC iter.                  ...        0 min,  0.008 sec
     gradient                   ...        0 min,  0.015 sec
 * total energy  :   -57.2815385 Eh     change       -0.5791397E-03 Eh
   gradient norm :     0.0090648 Eh/α   predicted    -0.4442789E-03 ( -23.29%)
   displ. norm   :     0.4841117 α      lambda       -0.6994049E-03
   maximum displ.:     0.2455066 α      in ANC's #3, #6, #2, ...

........................................................................
.............................. CYCLE    8 ..............................
........................................................................

 iter      E             dE          RMSdq      gap      omega  full diag
   1    -58.0100195 -0.580100E+02  0.923E-02    4.54       0.0  T
   2    -58.0100233 -0.379316E-05  0.539E-02    4.54       1.0  T
   3    -58.0100231  0.228715E-06  0.633E-03    4.54       2.4  T
   4    -58.0100241 -0.982542E-06  0.180E-03    4.54       8.4  T
   5    -58.0100241 -0.227214E-07  0.993E-04    4.54      15.2  T
   6    -58.0100241 -0.431606E-08  0.220E-04    4.54      68.5  T
     SCC iter.                  ...        0 min,  0.008 sec
     gradient                   ...        0 min,  0.015 sec
 * total energy  :   -57.2820764 Eh     change       -0.5379389E-03 Eh
   gradient norm :     0.0079527 Eh/α   predicted    -0.4316595E-03 ( -19.76%)
   displ. norm   :     0.4640709 α      lambda       -0.5942507E-03
   maximum displ.:     0.2294174 α      in ANC's #3, #2, #6, ...

........................................................................
.............................. CYCLE    9 ..............................
........................................................................

 iter      E             dE          RMSdq      gap      omega  full diag
   1    -58.0122722 -0.580123E+02  0.817E-02    4.54       0.0  T
   2    -58.0122839 -0.117306E-04  0.472E-02    4.54       1.0  T
   3    -58.0122831  0.759440E-06  0.125E-02    4.54       1.2  T
   4    -58.0122852 -0.209658E-05  0.188E-03    4.54       8.0  T
   5    -58.0122853 -0.455369E-07  0.102E-03    4.54      14.8  T
   6    -58.0122853 -0.420589E-08  0.305E-04    4.54      49.4  T
   7    -58.0122853 -0.573095E-09  0.131E-04    4.54     115.1  T
     SCC iter.                  ...        0 min,  0.009 sec
     gradient                   ...        0 min,  0.015 sec
 * total energy  :   -57.2825062 Eh     change       -0.4298254E-03 Eh
   gradient norm :     0.0072574 Eh/α   predicted    -0.3611167E-03 ( -15.99%)
   displ. norm   :     0.4912185 α      lambda       -0.4538975E-03
   maximum displ.:     0.2314113 α      in ANC's #3, #6, #2, ...

........................................................................
.............................. CYCLE   10 ..............................
........................................................................

 iter      E             dE          RMSdq      gap      omega  full diag
   1    -58.0101552 -0.580102E+02  0.914E-02    4.55       0.0  T
   2    -58.0101598 -0.458716E-05  0.543E-02    4.55       1.0  T
   3    -58.0101598  0.591251E-07  0.591E-03    4.54       2.6  T
   4    -58.0101606 -0.809489E-06  0.178E-03    4.54       8.5  T
   5    -58.0101606 -0.122410E-07  0.944E-04    4.54      16.0  T
   6    -58.0101606 -0.495075E-08  0.255E-04    4.54      59.2  T
     SCC iter.                  ...        0 min,  0.008 sec
     gradient                   ...        0 min,  0.015 sec
 * total energy  :   -57.2827651 Eh     change       -0.2588905E-03 Eh
   gradient norm :     0.0081944 Eh/α   predicted    -0.2817169E-03 (   8.82%)
   displ. norm   :     0.3001071 α      lambda       -0.4659221E-03
   maximum displ.:     0.1433056 α      in ANC's #1, #3, #2, ...

........................................................................
.............................. CYCLE   11 ..............................
........................................................................

 iter      E             dE          RMSdq      gap      omega  full diag
   1    -58.0186364 -0.580186E+02  0.572E-02    4.56       0.0  T
   2    -58.0186431 -0.668055E-05  0.331E-02    4.56       1.0  T
   3    -58.0186427  0.361768E-06  0.903E-03    4.56       1.7  T
   4    -58.0186440 -0.124037E-05  0.207E-03    4.55       7.3  T
   5    -58.0186440 -0.389680E-07  0.989E-04    4.55      15.2  T
   6    -58.0186440 -0.233420E-08  0.277E-04    4.56      54.4  T
     SCC iter.                  ...        0 min,  0.008 sec
     gradient                   ...        0 min,  0.015 sec
 * total energy  :   -57.2828990 Eh     change       -0.1339053E-03 Eh
   gradient norm :     0.0087465 Eh/α   predicted    -0.2539485E-03 (  89.65%)
   displ. norm   :     0.2738162 α      lambda       -0.3029374E-03
   maximum displ.:     0.1356120 α      in ANC's #3, #1, #2, ...

........................................................................
.............................. CYCLE   12 ..............................
........................................................................

 iter      E             dE          RMSdq      gap      omega  full diag
   1    -58.0154228 -0.580154E+02  0.485E-02    4.54       0.0  T
   2    -58.0154280 -0.520381E-05  0.282E-02    4.55       1.0  T
   3    -58.0154280  0.724842E-07  0.790E-03    4.55       1.9  T
   4    -58.0154286 -0.639365E-06  0.152E-03    4.55       9.9  T
   5    -58.0154286 -0.198783E-07  0.650E-04    4.55      23.2  T
   6    -58.0154286 -0.264908E-08  0.265E-04    4.55      57.0  T
     SCC iter.                  ...        0 min,  0.008 sec
     gradient                   ...        0 min,  0.015 sec
 * total energy  :   -57.2830599 Eh     change       -0.1608780E-03 Eh
   gradient norm :     0.0073763 Eh/α   predicted    -0.1628324E-03 (   1.21%)
   displ. norm   :     0.1285024 α      lambda       -0.9704220E-04
   maximum displ.:     0.0614165 α      in ANC's #1, #3, #2, ...

........................................................................
.............................. CYCLE   13 ..............................
........................................................................

 iter      E             dE          RMSdq      gap      omega  full diag
   1    -58.0147665 -0.580148E+02  0.224E-02    4.55       0.0  T
   2    -58.0147687 -0.219760E-05  0.135E-02    4.55       1.1  T
   3    -58.0147687 -0.311889E-07  0.503E-03    4.55       3.0  T
   4    -58.0147689 -0.179984E-06  0.664E-04    4.55      22.7  T
   5    -58.0147689 -0.700017E-08  0.320E-04    4.55      47.0  T
     SCC iter.                  ...        0 min,  0.007 sec
     gradient                   ...        0 min,  0.015 sec
 * total energy  :   -57.2831339 Eh     change       -0.7399718E-04 Eh
   gradient norm :     0.0035714 Eh/α   predicted    -0.4932957E-04 ( -33.34%)
   displ. norm   :     0.2367554 α      lambda       -0.1557328E-03
   maximum displ.:     0.1338077 α      in ANC's #1, #3, #2, ...

........................................................................
.............................. CYCLE   14 ..............................
........................................................................

 iter      E             dE          RMSdq      gap      omega  full diag
   1    -58.0155523 -0.580156E+02  0.372E-02    4.55       0.0  T
   2    -58.0155552 -0.292202E-05  0.219E-02    4.55       1.0  T
   3    -58.0155551  0.853589E-07  0.577E-03    4.55       2.6  T
   4    -58.0155555 -0.350919E-06  0.843E-04    4.55      17.9  T
   5    -58.0155555 -0.699759E-08  0.358E-04    4.55      42.1  T
     SCC iter.                  ...        0 min,  0.007 sec
     gradient                   ...        0 min,  0.015 sec
 * total energy  :   -57.2832428 Eh     change       -0.1088946E-03 Eh
   gradient norm :     0.0031401 Eh/α   predicted    -0.8223181E-04 ( -24.48%)
   displ. norm   :     0.2852035 α      lambda       -0.1183636E-03
   maximum displ.:     0.1633115 α      in ANC's #1, #3, #2, ...

........................................................................
.............................. CYCLE   15 ..............................
........................................................................

 iter      E             dE          RMSdq      gap      omega  full diag
   1    -58.0154963 -0.580155E+02  0.423E-02    4.55       0.0  T
   2    -58.0154973 -0.901810E-06  0.250E-02    4.55       1.0  T
   3    -58.0154972  0.140062E-07  0.269E-03    4.55       5.6  T
   4    -58.0154974 -0.155166E-06  0.873E-04    4.55      17.3  T
   5    -58.0154974 -0.339207E-08  0.343E-04    4.55      43.9  T
     SCC iter.                  ...        0 min,  0.007 sec
     gradient                   ...        0 min,  0.015 sec
 * total energy  :   -57.2833256 Eh     change       -0.8274865E-04 Eh
   gradient norm :     0.0040829 Eh/α   predicted    -0.6399635E-04 ( -22.66%)
   displ. norm   :     0.2830395 α      lambda       -0.1229805E-03
   maximum displ.:     0.1810836 α      in ANC's #1, #3, #2, ...

........................................................................
.............................. CYCLE   16 ..............................
........................................................................

 iter      E             dE          RMSdq      gap      omega  full diag
   1    -58.0160970 -0.580161E+02  0.426E-02    4.55       0.0  T
   2    -58.0160977 -0.685284E-06  0.252E-02    4.55       1.0  T
   3    -58.0160978 -0.657634E-07  0.208E-03    4.55       7.2  T
   4    -58.0160979 -0.698667E-07  0.854E-04    4.55      17.6  T
   5    -58.0160979 -0.262455E-08  0.300E-04    4.55      50.3  T
     SCC iter.                  ...        0 min,  0.007 sec
     gradient                   ...        0 min,  0.015 sec
 * total energy  :   -57.2834116 Eh     change       -0.8606493E-04 Eh
   gradient norm :     0.0037586 Eh/α   predicted    -0.6641684E-04 ( -22.83%)
   displ. norm   :     0.2429956 α      lambda       -0.9607038E-04
   maximum displ.:     0.1549797 α      in ANC's #1, #17, #10, ...

........................................................................
.............................. CYCLE   17 ..............................
........................................................................

 iter      E             dE          RMSdq      gap      omega  full diag
   1    -58.0162171 -0.580162E+02  0.367E-02    4.55       0.0  T
   2    -58.0162177 -0.581410E-06  0.217E-02    4.55       1.0  T
   3    -58.0162177  0.707310E-08  0.227E-03    4.55       6.6  T
   4    -58.0162178 -0.126064E-06  0.773E-04    4.55      19.5  T
   5    -58.0162178 -0.312499E-08  0.292E-04    4.55      51.5  T
     SCC iter.                  ...        0 min,  0.007 sec
     gradient                   ...        0 min,  0.015 sec
 * total energy  :   -57.2834844 Eh     change       -0.7280624E-04 Eh
   gradient norm :     0.0030136 Eh/α   predicted    -0.5087543E-04 ( -30.12%)
   displ. norm   :     0.2386610 α      lambda       -0.8530352E-04
   maximum displ.:     0.1521959 α      in ANC's #1, #17, #10, ...

........................................................................
.............................. CYCLE   18 ..............................
........................................................................

 iter      E             dE          RMSdq      gap      omega  full diag
   1    -58.0165446 -0.580165E+02  0.381E-02    4.55       0.0  T
   2    -58.0165451 -0.572727E-06  0.225E-02    4.55       1.0  T
   3    -58.0165452 -0.450342E-08  0.228E-03    4.55       6.6  T
   4    -58.0165453 -0.125383E-06  0.802E-04    4.55      18.8  T
   5    -58.0165453 -0.271810E-08  0.334E-04    4.55      45.1  T
     SCC iter.                  ...        0 min,  0.007 sec
     gradient                   ...        0 min,  0.015 sec
 * total energy  :   -57.2835431 Eh     change       -0.5867451E-04 Eh
   gradient norm :     0.0027398 Eh/α   predicted    -0.4508164E-04 ( -23.17%)
   displ. norm   :     0.2377368 α      lambda       -0.5823514E-04
   maximum displ.:     0.1458905 α      in ANC's #1, #17, #10, ...

........................................................................
.............................. CYCLE   19 ..............................
........................................................................

 iter      E             dE          RMSdq      gap      omega  full diag
   1    -58.0143801 -0.580144E+02  0.350E-02    4.55       0.0  T
   2    -58.0143809 -0.788999E-06  0.205E-02    4.55       1.0  T
   3    -58.0143810 -0.664829E-07  0.192E-03    4.55       7.8  T
   4    -58.0143810 -0.240339E-07  0.695E-04    4.55      21.7  T
   5    -58.0143810 -0.148967E-08  0.316E-04    4.55      47.7  T
     SCC iter.                  ...        0 min,  0.007 sec
     gradient                   ...        0 min,  0.015 sec
 * total energy  :   -57.2835680 Eh     change       -0.2488687E-04 Eh
   gradient norm :     0.0040352 Eh/α   predicted    -0.3076426E-04 (  23.62%)
   displ. norm   :     0.1616472 α      lambda       -0.6738028E-04
   maximum displ.:     0.0811559 α      in ANC's #4, #1, #10, ...

........................................................................
.............................. CYCLE   20 ..............................
........................................................................

 iter      E             dE          RMSdq      gap      omega  full diag
   1    -58.0159150 -0.580159E+02  0.312E-02    4.56       0.0  T
   2    -58.0159157 -0.651366E-06  0.182E-02    4.56       1.0  T
   3    -58.0159157  0.332918E-09  0.230E-03    4.56       6.6  T
   4    -58.0159158 -0.105022E-06  0.740E-04    4.55      20.4  T
   5    -58.0159158 -0.477568E-08  0.398E-04    4.55      37.8  T
     SCC iter.                  ...        0 min,  0.007 sec
     gradient                   ...        0 min,  0.015 sec
 * total energy  :   -57.2836056 Eh     change       -0.3759802E-04 Eh
   gradient norm :     0.0025763 Eh/α   predicted    -0.3457535E-04 (  -8.04%)
   displ. norm   :     0.0800082 α      lambda       -0.4125687E-04
   maximum displ.:     0.0335327 α      in ANC's #4, #1, #6, ...
 * RMSD in coord.:     0.7102846 α      energy gain  -0.1538679E-01 Eh

generating ANC from exact Hessian ...
Using Lindh-Hessian (1995)
 Shifting diagonal of input Hessian by    9.6054037043305264E-003
 Lowest  eigenvalues of input Hessian
    0.000000    0.000000    0.000000    0.000000    0.000000    0.000000
    0.010000    0.010264    0.010371    0.010809    0.011019    0.012137
    0.013508    0.014224    0.014760    0.015931    0.016676    0.017416
 Highest eigenvalues
    1.568931    1.592375    1.819640    1.869663    2.280279    2.312521


........................................................................
.............................. CYCLE   21 ..............................
........................................................................

 iter      E             dE          RMSdq      gap      omega  full diag
   1    -58.0160670 -0.580161E+02  0.127E-02    4.56       0.0  T
   2    -58.0160671 -0.134790E-06  0.738E-03    4.56       2.0  T
   3    -58.0160671  0.153507E-07  0.135E-03    4.56      11.1  T
   4    -58.0160671 -0.448496E-07  0.367E-04    4.56      41.1  T
   5    -58.0160671 -0.466621E-09  0.154E-04    4.56      98.1  T
     SCC iter.                  ...        0 min,  0.007 sec
     gradient                   ...        0 min,  0.015 sec
 * total energy  :   -57.2836391 Eh     change       -0.3347455E-04 Eh
   gradient norm :     0.0019032 Eh/α   predicted     0.0000000E+00 (-100.00%)
   displ. norm   :     0.0555313 α      lambda       -0.3026976E-04
   maximum displ.:     0.0218902 α      in ANC's #8, #11, #15, ...

........................................................................
.............................. CYCLE   22 ..............................
........................................................................

 iter      E             dE          RMSdq      gap      omega  full diag
   1    -58.0161436 -0.580161E+02  0.107E-02    4.56       0.0  T
   2    -58.0161437 -0.122839E-06  0.626E-03    4.56       2.4  T
   3    -58.0161437  0.380140E-08  0.111E-03    4.56      13.6  T
   4    -58.0161437 -0.213984E-07  0.294E-04    4.56      51.3  T
   5    -58.0161437 -0.514532E-09  0.134E-04    4.56     112.2  T
     SCC iter.                  ...        0 min,  0.007 sec
     gradient                   ...        0 min,  0.015 sec
 * total energy  :   -57.2836755 Eh     change       -0.3644331E-04 Eh
   gradient norm :     0.0008619 Eh/α   predicted    -0.1518356E-04 ( -58.34%)
   displ. norm   :     0.1703508 α      lambda       -0.6096466E-04
   maximum displ.:     0.0607815 α      in ANC's #11, #15, #5, ...

........................................................................
.............................. CYCLE   23 ..............................
........................................................................

 iter      E             dE          RMSdq      gap      omega  full diag
   1    -58.0160398 -0.580160E+02  0.283E-02    4.56       0.0  T
   2    -58.0160406 -0.775372E-06  0.165E-02    4.56       1.0  T
   3    -58.0160406 -0.416198E-08  0.264E-03    4.56       5.7  T
   4    -58.0160407 -0.110364E-06  0.767E-04    4.56      19.7  T
   5    -58.0160407 -0.189982E-08  0.313E-04    4.56      48.1  T
     SCC iter.                  ...        0 min,  0.007 sec
     gradient                   ...        0 min,  0.015 sec
 * total energy  :   -57.2837366 Eh     change       -0.6107112E-04 Eh
   gradient norm :     0.0019283 Eh/α   predicted    -0.3088096E-04 ( -49.43%)
   displ. norm   :     0.1575723 α      lambda       -0.3464630E-04
   maximum displ.:     0.0656339 α      in ANC's #15, #5, #4, ...

........................................................................
.............................. CYCLE   24 ..............................
........................................................................

 iter      E             dE          RMSdq      gap      omega  full diag
   1    -58.0160133 -0.580160E+02  0.255E-02    4.56       0.0  T
   2    -58.0160137 -0.410117E-06  0.149E-02    4.56       1.0  T
   3    -58.0160137 -0.200836E-07  0.183E-03    4.56       8.2  T
   4    -58.0160138 -0.541624E-07  0.641E-04    4.56      23.5  T
   5    -58.0160138 -0.394813E-09  0.192E-04    4.56      78.7  T
     SCC iter.                  ...        0 min,  0.007 sec
     gradient                   ...        0 min,  0.015 sec
 * total energy  :   -57.2837759 Eh     change       -0.3927574E-04 Eh
   gradient norm :     0.0020356 Eh/α   predicted    -0.1751521E-04 ( -55.40%)
   displ. norm   :     0.1660322 α      lambda       -0.4901905E-04
   maximum displ.:     0.0748190 α      in ANC's #15, #5, #4, ...

........................................................................
.............................. CYCLE   25 ..............................
........................................................................

 iter      E             dE          RMSdq      gap      omega  full diag
   1    -58.0159584 -0.580160E+02  0.260E-02    4.57       0.0  T
   2    -58.0159587 -0.313169E-06  0.152E-02    4.57       1.0  T
   3    -58.0159587 -0.318695E-07  0.155E-03    4.57       9.7  T
   4    -58.0159588 -0.378769E-07  0.638E-04    4.57      23.6  T
   5    -58.0159588 -0.395445E-09  0.138E-04    4.57     109.3  T
     SCC iter.                  ...        0 min,  0.007 sec
     gradient                   ...        0 min,  0.015 sec
 * total energy  :   -57.2838153 Eh     change       -0.3945684E-04 Eh
   gradient norm :     0.0018037 Eh/α   predicted    -0.2519120E-04 ( -36.16%)
   displ. norm   :     0.3908546 α      lambda       -0.7001327E-04
   maximum displ.:     0.1830161 α      in ANC's #15, #5, #4, ...

........................................................................
.............................. CYCLE   26 ..............................
........................................................................

 iter      E             dE          RMSdq      gap      omega  full diag
   1    -58.0148324 -0.580148E+02  0.589E-02    4.57       0.0  T
   2    -58.0148337 -0.128850E-05  0.345E-02    4.57       1.0  T
   3    -58.0148339 -0.213264E-06  0.298E-03    4.57       5.1  T
   4    -58.0148340 -0.110624E-06  0.141E-03    4.57      10.7  T
   5    -58.0148340 -0.253137E-08  0.294E-04    4.57      51.4  T
   6    -58.0148340 -0.752088E-09  0.847E-05    4.57     178.0  T
     SCC iter.                  ...        0 min,  0.008 sec
     gradient                   ...        0 min,  0.015 sec
 * total energy  :   -57.2838726 Eh     change       -0.5732075E-04 Eh
   gradient norm :     0.0034939 Eh/α   predicted    -0.3739996E-04 ( -34.75%)
   displ. norm   :     0.0836135 α      lambda       -0.5155702E-04
   maximum displ.:     0.0443709 α      in ANC's #5, #15, #4, ...

........................................................................
.............................. CYCLE   27 ..............................
........................................................................

 iter      E             dE          RMSdq      gap      omega  full diag
   1    -58.0161998 -0.580162E+02  0.134E-02    4.57       0.0  T
   2    -58.0162000 -0.200459E-06  0.773E-03    4.57       1.9  T
   3    -58.0162000 -0.148486E-07  0.110E-03    4.57      13.6  T
   4    -58.0162000 -0.646872E-08  0.352E-04    4.57      42.8  T
   5    -58.0162000 -0.316241E-09  0.160E-04    4.57      94.2  T
     SCC iter.                  ...        0 min,  0.007 sec
     gradient                   ...        0 min,  0.015 sec
 * total energy  :   -57.2839133 Eh     change       -0.4066831E-04 Eh
   gradient norm :     0.0022023 Eh/α   predicted    -0.2596196E-04 ( -36.16%)
   displ. norm   :     0.2639314 α      lambda       -0.9195161E-04
   maximum displ.:     0.1389801 α      in ANC's #5, #15, #4, ...

........................................................................
.............................. CYCLE   28 ..............................
........................................................................

 iter      E             dE          RMSdq      gap      omega  full diag
   1    -58.0168651 -0.580169E+02  0.398E-02    4.57       0.0  T
   2    -58.0168655 -0.426178E-06  0.233E-02    4.57       1.0  T
   3    -58.0168656 -0.923794E-07  0.172E-03    4.57       8.8  T
   4    -58.0168657 -0.318523E-07  0.860E-04    4.57      17.5  T
   5    -58.0168657 -0.156876E-08  0.255E-04    4.57      59.2  T
     SCC iter.                  ...        0 min,  0.007 sec
     gradient                   ...        0 min,  0.015 sec
 * total energy  :   -57.2839913 Eh     change       -0.7795277E-04 Eh
   gradient norm :     0.0026622 Eh/α   predicted    -0.4918264E-04 ( -36.91%)
   displ. norm   :     0.5395610 α      lambda       -0.1688623E-03
   maximum displ.:     0.2844134 α      in ANC's #5, #15, #4, ...

........................................................................
.............................. CYCLE   29 ..............................
........................................................................

 iter      E             dE          RMSdq      gap      omega  full diag
   1    -58.0143098 -0.580143E+02  0.837E-02    4.57       0.0  T
   2    -58.0143127 -0.288631E-05  0.488E-02    4.57       1.0  T
   3    -58.0143131 -0.362132E-06  0.433E-03    4.56       3.5  T
   4    -58.0143133 -0.243347E-06  0.188E-03    4.57       8.0  T
   5    -58.0143133 -0.849592E-08  0.732E-04    4.57      20.6  T
   6    -58.0143133 -0.382492E-08  0.199E-04    4.57      75.8  T
     SCC iter.                  ...        0 min,  0.008 sec
     gradient                   ...        0 min,  0.015 sec
 * total energy  :   -57.2841111 Eh     change       -0.1198931E-03 Eh
   gradient norm :     0.0052775 Eh/α   predicted    -0.1090159E-03 (  -9.07%)
   displ. norm   :     0.3142553 α      lambda       -0.1734453E-03
   maximum displ.:     0.1661366 α      in ANC's #5, #16, #2, ...

........................................................................
.............................. CYCLE   30 ..............................
........................................................................

 iter      E             dE          RMSdq      gap      omega  full diag
   1    -58.0148322 -0.580148E+02  0.576E-02    4.57       0.0  T
   2    -58.0148338 -0.155899E-05  0.335E-02    4.57       1.0  T
   3    -58.0148338 -0.130487E-08  0.381E-03    4.57       4.0  T
   4    -58.0148341 -0.317197E-06  0.122E-03    4.57      12.4  T
   5    -58.0148341 -0.546898E-08  0.559E-04    4.57      27.0  T
   6    -58.0148341 -0.198359E-08  0.170E-04    4.57      88.7  T
     SCC iter.                  ...        0 min,  0.008 sec
     gradient                   ...        0 min,  0.015 sec
 * total energy  :   -57.2842350 Eh     change       -0.1238583E-03 Eh
   gradient norm :     0.0038685 Eh/α   predicted    -0.9530098E-04 ( -23.06%)
   displ. norm   :     0.3340570 α      lambda       -0.1470855E-03
   maximum displ.:     0.1827335 α      in ANC's #5, #15, #2, ...

........................................................................
.............................. CYCLE   31 ..............................
........................................................................

 iter      E             dE          RMSdq      gap      omega  full diag
   1    -58.0149388 -0.580149E+02  0.577E-02    4.57       0.0  T
   2    -58.0149403 -0.156748E-05  0.335E-02    4.57       1.0  T
   3    -58.0149403 -0.899601E-08  0.395E-03    4.57       3.8  T
   4    -58.0149407 -0.343644E-06  0.132E-03    4.57      11.4  T
   5    -58.0149407 -0.616558E-08  0.585E-04    4.57      25.8  T
   6    -58.0149407 -0.248312E-08  0.164E-04    4.57      91.8  T
     SCC iter.                  ...        0 min,  0.008 sec
     gradient                   ...        0 min,  0.015 sec
 * total energy  :   -57.2843519 Eh     change       -0.1168674E-03 Eh
   gradient norm :     0.0036276 Eh/α   predicted    -0.8175346E-04 ( -30.05%)
   displ. norm   :     0.3117735 α      lambda       -0.2458123E-03
   maximum displ.:     0.1542684 α      in ANC's #5, #7, #2, ...

........................................................................
.............................. CYCLE   32 ..............................
........................................................................

 iter      E             dE          RMSdq      gap      omega  full diag
   1    -58.0204719 -0.580205E+02  0.617E-02    4.59       0.0  T
   2    -58.0204781 -0.620359E-05  0.355E-02    4.58       1.0  T
   3    -58.0204780  0.122047E-06  0.822E-03    4.59       1.8  T
   4    -58.0204788 -0.811945E-06  0.181E-03    4.58       8.3  T
   5    -58.0204788 -0.315886E-07  0.966E-04    4.58      15.6  T
   6    -58.0204788 -0.245710E-08  0.223E-04    4.58      67.6  T
     SCC iter.                  ...        0 min,  0.008 sec
     gradient                   ...        0 min,  0.015 sec
 * total energy  :   -57.2844070 Eh     change       -0.5512041E-04 Eh
   gradient norm :     0.0075140 Eh/α   predicted    -0.1348627E-03 ( 144.67%)
   displ. norm   :     0.4813778 α      lambda       -0.2881711E-03
   maximum displ.:     0.2755288 α      in ANC's #5, #15, #4, ...

........................................................................
.............................. CYCLE   33 ..............................
........................................................................

 iter      E             dE          RMSdq      gap      omega  full diag
   1    -58.0136855 -0.580137E+02  0.808E-02    4.57       0.0  T
   2    -58.0136919 -0.634886E-05  0.464E-02    4.57       1.0  T
   3    -58.0136924 -0.568704E-06  0.602E-03    4.57       2.5  T
   4    -58.0136927 -0.246190E-06  0.214E-03    4.57       7.0  T
   5    -58.0136927 -0.185202E-07  0.102E-03    4.57      14.8  T
   6    -58.0136927 -0.614548E-08  0.276E-04    4.57      54.5  T
   7    -58.0136927 -0.690058E-09  0.870E-05    4.57     173.3  T
     SCC iter.                  ...        0 min,  0.009 sec
     gradient                   ...        0 min,  0.015 sec
 * total energy  :   -57.2844949 Eh     change       -0.8791071E-04 Eh
   gradient norm :     0.0064814 Eh/α   predicted    -0.1774757E-03 ( 101.88%)
   displ. norm   :     0.2219385 α      lambda       -0.1334555E-03
   maximum displ.:     0.1117319 α      in ANC's #5, #15, #4, ...

........................................................................
.............................. CYCLE   34 ..............................
........................................................................

 iter      E             dE          RMSdq      gap      omega  full diag
   1    -58.0171434 -0.580171E+02  0.396E-02    4.57       0.0  T
   2    -58.0171450 -0.152397E-05  0.229E-02    4.57       1.0  T
   3    -58.0171450 -0.223562E-07  0.351E-03    4.57       4.3  T
   4    -58.0171452 -0.182570E-06  0.105E-03    4.57      14.3  T
   5    -58.0171452 -0.737830E-08  0.531E-04    4.57      28.4  T
   6    -58.0171452 -0.934321E-09  0.146E-04    4.57     103.2  T
     SCC iter.                  ...        0 min,  0.008 sec
     gradient                   ...        0 min,  0.015 sec
 * total energy  :   -57.2845589 Eh     change       -0.6397744E-04 Eh
   gradient norm :     0.0017521 Eh/α   predicted    -0.7001933E-04 (   9.44%)
   displ. norm   :     0.1770000 α      lambda       -0.4083374E-04
   maximum displ.:     0.1164237 α      in ANC's #5, #2, #18, ...

........................................................................
.............................. CYCLE   35 ..............................
........................................................................

 iter      E             dE          RMSdq      gap      omega  full diag
   1    -58.0171329 -0.580171E+02  0.276E-02    4.57       0.0  T
   2    -58.0171332 -0.307918E-06  0.159E-02    4.57       1.0  T
   3    -58.0171332 -0.428025E-07  0.150E-03    4.57      10.1  T
   4    -58.0171333 -0.414830E-07  0.638E-04    4.57      23.6  T
   5    -58.0171333 -0.109137E-08  0.234E-04    4.57      64.5  T
     SCC iter.                  ...        0 min,  0.007 sec
     gradient                   ...        0 min,  0.015 sec
 * total energy  :   -57.2846066 Eh     change       -0.4773788E-04 Eh
   gradient norm :     0.0015858 Eh/α   predicted    -0.2070535E-04 ( -56.63%)
   displ. norm   :     0.3658632 α      lambda       -0.6820572E-04
   maximum displ.:     0.2315172 α      in ANC's #5, #2, #18, ...

........................................................................
.............................. CYCLE   36 ..............................
........................................................................

 iter      E             dE          RMSdq      gap      omega  full diag
   1    -58.0166029 -0.580166E+02  0.538E-02    4.57       0.0  T
   2    -58.0166045 -0.162081E-05  0.310E-02    4.57       1.0  T
   3    -58.0166046 -0.600487E-07  0.375E-03    4.57       4.0  T
   4    -58.0166049 -0.309448E-06  0.133E-03    4.57      11.3  T
   5    -58.0166049 -0.754856E-08  0.509E-04    4.57      29.6  T
   6    -58.0166049 -0.147592E-08  0.158E-04    4.57      95.7  T
     SCC iter.                  ...        0 min,  0.008 sec
     gradient                   ...        0 min,  0.015 sec
 * total energy  :   -57.2846591 Eh     change       -0.5243440E-04 Eh
   gradient norm :     0.0026409 Eh/α   predicted    -0.3613340E-04 ( -31.09%)
   displ. norm   :     0.1176566 α      lambda       -0.3067466E-04
   maximum displ.:     0.0777319 α      in ANC's #5, #2, #1, ...

........................................................................
.............................. CYCLE   37 ..............................
........................................................................

 iter      E             dE          RMSdq      gap      omega  full diag
   1    -58.0164907 -0.580165E+02  0.181E-02    4.57       0.0  T
   2    -58.0164911 -0.327907E-06  0.105E-02    4.56       1.4  T
   3    -58.0164911  0.103363E-07  0.179E-03    4.56       8.4  T
   4    -58.0164911 -0.629864E-07  0.488E-04    4.56      30.9  T
   5    -58.0164911 -0.944517E-09  0.226E-04    4.56      66.6  T
     SCC iter.                  ...        0 min,  0.007 sec
     gradient                   ...        0 min,  0.015 sec
 * total energy  :   -57.2846785 Eh     change       -0.1940733E-04 Eh
   gradient norm :     0.0015887 Eh/α   predicted    -0.1555323E-04 ( -19.86%)
   displ. norm   :     0.1291655 α      lambda       -0.1758401E-04
   maximum displ.:     0.0806764 α      in ANC's #5, #2, #20, ...

........................................................................
.............................. CYCLE   38 ..............................
........................................................................

 iter      E             dE          RMSdq      gap      omega  full diag
   1    -58.0173813 -0.580174E+02  0.203E-02    4.57       0.0  T
   2    -58.0173818 -0.525592E-06  0.118E-02    4.56       1.3  T
   3    -58.0173818  0.930997E-08  0.229E-03    4.56       6.6  T
   4    -58.0173818 -0.652312E-07  0.499E-04    4.56      30.2  T
   5    -58.0173818 -0.202066E-08  0.253E-04    4.56      59.6  T
     SCC iter.                  ...        0 min,  0.007 sec
     gradient                   ...        0 min,  0.015 sec
 * total energy  :   -57.2846909 Eh     change       -0.1243681E-04 Eh
   gradient norm :     0.0020484 Eh/α   predicted    -0.8861050E-05 ( -28.75%)
   displ. norm   :     0.0365763 α      lambda       -0.7136524E-05
   maximum displ.:     0.0199614 α      in ANC's #5, #2, #1, ...

........................................................................
.............................. CYCLE   39 ..............................
........................................................................

 iter      E             dE          RMSdq      gap      omega  full diag
   1    -58.0173653 -0.580174E+02  0.545E-03    4.57       0.0  T
   2    -58.0173654 -0.474318E-07  0.317E-03    4.57       4.8  T
   3    -58.0173654  0.734729E-08  0.866E-04    4.57      17.4  T
   4    -58.0173654 -0.156997E-07  0.162E-04    4.57      93.2  T
     SCC iter.                  ...        0 min,  0.005 sec
     gradient                   ...        0 min,  0.015 sec
 * total energy  :   -57.2846965 Eh     change       -0.5586589E-05 Eh
   gradient norm :     0.0012927 Eh/α   predicted    -0.3575461E-05 ( -36.00%)
   displ. norm   :     0.0758990 α      lambda       -0.8921489E-05
   maximum displ.:     0.0358076 α      in ANC's #2, #5, #3, ...

........................................................................
.............................. CYCLE   40 ..............................
........................................................................

 iter      E             dE          RMSdq      gap      omega  full diag
   1    -58.0173550 -0.580174E+02  0.114E-02    4.57       0.0  T
   2    -58.0173553 -0.266735E-06  0.665E-03    4.57       2.3  T
   3    -58.0173553  0.208009E-07  0.198E-03    4.57       7.6  T
   4    -58.0173553 -0.558707E-07  0.300E-04    4.57      50.2  T
   5    -58.0173553 -0.790699E-09  0.155E-04    4.57      97.4  T
     SCC iter.                  ...        0 min,  0.007 sec
     gradient                   ...        0 min,  0.015 sec
 * total energy  :   -57.2847026 Eh     change       -0.6076791E-05 Eh
   gradient norm :     0.0008593 Eh/α   predicted    -0.4473485E-05 ( -26.38%)
   displ. norm   :     0.0247839 α      lambda       -0.3222606E-05
   maximum displ.:     0.0136048 α      in ANC's #2, #3, #1, ...

........................................................................
.............................. CYCLE   41 ..............................
........................................................................

 iter      E             dE          RMSdq      gap      omega  full diag
   1    -58.0174219 -0.580174E+02  0.369E-03    4.57       0.0  T
   2    -58.0174219 -0.730876E-08  0.217E-03    4.57       6.9  T
   3    -58.0174219 -0.359357E-09  0.243E-04    4.57      61.9  T
   4    -58.0174219 -0.887390E-09  0.843E-05    4.57     178.8  T
     SCC iter.                  ...        0 min,  0.005 sec
     gradient                   ...        0 min,  0.015 sec
 * total energy  :   -57.2847069 Eh     change       -0.4301269E-05 Eh
   gradient norm :     0.0006641 Eh/α   predicted    -0.1614366E-05 ( -62.47%)
   displ. norm   :     0.1457637 α      lambda       -0.1684863E-04
   maximum displ.:     0.0824007 α      in ANC's #2, #3, #1, ...

   *** GEOMETRY OPTIMIZATION CONVERGED AFTER 41 ITERATIONS ***

------------------------------------------------------------------------
 total energy gain   :        -0.0164881 Eh      -10.3464 kcal/mol
 total RMSD          :         1.0333548 a0        0.5468 Å
 total power (kW/mol):        -1.0558389 (step)  -35.9176 (real)
------------------------------------------------------------------------

 ANCopt (total)                0 d,  0 h,  0 min,  1.205 sec
 optimizer setup                ...        0 min,  0.000 sec (  0.014%)
 model hessian                  ...        0 min,  0.049 sec (  4.085%)
 ANC generation                 ...        0 min,  0.003 sec (  0.219%)
 coordinate transformation      ...        0 min,  0.000 sec (  0.025%)
 single point calculation       ...        0 min,  1.144 sec ( 94.913%)
 optimization log               ...        0 min,  0.004 sec (  0.364%)
 hessian update                 ...        0 min,  0.000 sec (  0.039%)
 rational function              ...        0 min,  0.003 sec (  0.249%)

================
 final structure:
================
44
 xtb: 6.7.1 (edcfbbe)
C            2.74549778482401        4.67777958976065       -1.73038568023521
C            3.11234189391146        3.43873560240345       -2.51650388946194
O            3.49443696641630        3.51268708512255       -3.67178823102524
N            2.99331341236464        2.23271866083961       -1.90267854377357
C            2.52071000436282        2.03862069528312       -0.53922581737030
C            3.30489167963523        0.94339139211610        0.18310654240398
C            0.98413236065227        1.83925056097310       -0.51459463213669
C            0.46115628050906        1.76448954358633        0.92157171056177
C           -1.06404433316604        1.71949720168949        0.93689544771132
C           -1.56341629306754        0.51496288061814        0.14589717844372
C           -1.03776310771496        0.56995627796324       -1.28458886136515
C            0.48896173406643        0.62515279741625       -1.30182716216097
C            3.48522271636550        1.11881080325447       -2.68844545283464
C            5.01930938851204        1.12440997855555       -2.69048999067916
O            5.64991750533718        1.68386129975993       -1.81304176092590
N            5.61641052676665        0.44381695211014       -3.69148432517087
C            4.90645152758867       -0.19744499516928       -4.77260400531636
C            7.05550023163354        0.50335463544699       -3.82023741524748
H            2.81132381327059        5.52811319356063       -2.40390142307403
H            3.45482285711102        4.82142635936503       -0.91807439327217
H            1.73981413760116        4.62132367281624       -1.32324392959995
H            2.72638125435200        2.96756568088585        0.00131769735365
H            2.98940303283921       -0.05632436784846       -0.10198083276927
H            3.17290757347194        1.04804201295598        1.25621072997115
H            4.36173544486153        1.06014126693924       -0.04237507813604
H            0.54437515185293        2.72576711106737       -0.98780963129880
H            0.81346015243800        2.62825873175542        1.48992668258969
H            0.84392431519371        0.86389688943414        1.40389753183704
H           -1.46161692514825        2.63517642982328        0.49307312687047
H           -1.42209762333434        1.66475694756327        1.96704482842432
H           -2.65511781616293        0.49628873062901        0.14121554223557
H           -1.21496263927469       -0.40269732639657        0.62581977056070
H           -1.43569129329791        1.45805789908986       -1.78139202648830
H           -1.38043233516809       -0.30472033592643       -1.84191652318582
H            0.82951644103466        0.68944229292683       -2.33626161786217
H            0.88084685323500       -0.29439791404709       -0.86222130898363
H            3.11911993059847        1.24837650960571       -3.71001889306590
H            3.12556386691245        0.17674328713958       -2.27912917586596
H            4.54206980469103        0.53375391976305       -5.50068368222169
H            4.06399878105550       -0.77830067218895       -4.39868504257144
H            5.59021040299972       -0.87701846728459       -5.27860677340711
H            7.44389776423037        1.07914967766296       -2.98266610090563
H            7.33497342672151        0.99347278556511       -4.75515555563737
H            7.48064334892769       -0.50264527656643       -3.79795903292682

 Bond Distances (Angstroems)
 ---------------------------
C1-C2=1.5125         C1-H19=1.0867        C1-H20=1.0879        C1-H21=1.0864        C2-C1=1.5125         C2-O3=1.2191         
C2-N4=1.3585         O3-C2=1.2191         N4-C2=1.3585         N4-C5=1.4560         N4-C13=1.4492        C5-N4=1.4560         
C5-C6=1.5285         C5-C7=1.5497         C5-H22=1.0943        C6-C5=1.5285         C6-H23=1.0864        C6-H24=1.0862        
C6-H25=1.0869        C7-C5=1.5497         C7-C8=1.5303         C7-C12=1.5294        C7-H26=1.0969        C8-C7=1.5303         
C8-C9=1.5259         C8-H27=1.0924        C8-H28=1.0910        C9-C8=1.5259         C9-C10=1.5251        C9-H29=1.0925        
C9-H30=1.0920        C10-C9=1.5251        C10-C11=1.5250       C10-H31=1.0919       C10-H32=1.0926       C11-C10=1.5250       
C11-C12=1.5278       C11-H33=1.0927       C11-H34=1.0923       C12-C7=1.5294        C12-C11=1.5278       C12-H35=1.0909       
C12-H36=1.0920       C13-N4=1.4492        C13-C14=1.5341       C13-H37=1.0929       C13-H38=1.0883       C14-C13=1.5341       
C14-O15=1.2168       C14-N16=1.3497       O15-C14=1.2168       N16-C14=1.3497       N16-C17=1.4436       N16-C18=1.4461       
C17-N16=1.4436       C17-H39=1.0943       C17-H40=1.0895       C17-H41=1.0888       C18-N16=1.4461       C18-H42=1.0881       
C18-H43=1.0920       C18-H44=1.0924       H19-C1=1.0867        H20-C1=1.0879        H21-C1=1.0864        H22-C5=1.0943        
H23-C6=1.0864        H24-C6=1.0862        H25-C6=1.0869        H26-C7=1.0969        H27-C8=1.0924        H28-C8=1.0910        
H29-C9=1.0925        H30-C9=1.0920        H31-C10=1.0919       H32-C10=1.0926       H33-C11=1.0927       H34-C11=1.0923       
H35-C12=1.0909       H36-C12=1.0920       H37-C13=1.0929       H38-C13=1.0883       H39-C17=1.0943       H40-C17=1.0895       
H41-C17=1.0888       H42-C18=1.0881       H43-C18=1.0920       H44-C18=1.0924       
 C  H  Rav=1.0907 sigma=0.0028  Rmin=1.0862  Rmax=1.0969    26
 C  C  Rav=1.5288 sigma=0.0088  Rmin=1.5125  Rmax=1.5497    10
 N  C  Rav=1.4172 sigma=0.0448  Rmin=1.3497  Rmax=1.4560     6
 O  C  Rav=1.2179 sigma=0.0011  Rmin=1.2168  Rmax=1.2191     2

 selected bond angles (degree)
 --------------------
H19-C1-C2=107.71               H20-C1-C2=109.76               H20-C1-H19=108.66              H21-C1-C2=112.13               
H21-C1-H19=109.21              H21-C1-H20=109.30              O3-C2-C1=121.26                N4-C2-C1=118.11                
N4-C2-O3=120.63                C5-N4-C2=124.74                C13-N4-C2=114.06               C13-N4-C5=121.03               
C6-C5-N4=111.81                C7-C5-N4=110.72                C7-C5-C6=114.14                H22-C5-N4=106.76               
H22-C5-C6=106.17               H22-C5-C7=106.72               H23-C6-C5=112.73               H24-C6-C5=109.60               
H24-C6-H23=108.22              H25-C6-C5=108.90               H25-C6-H23=109.07              H25-C6-H24=108.22              
C8-C7-C5=111.10                C12-C7-C5=114.52               C12-C7-C8=109.49               H26-C7-C5=106.66               
H26-C7-C8=107.90               H26-C7-C12=106.84              C9-C8-C7=110.64                H27-C8-C7=109.84               
H27-C8-C9=109.90               H28-C8-C7=109.59               H28-C8-C9=108.78               H28-C8-H27=108.03              
C10-C9-C8=110.20               H29-C9-C8=109.57               H29-C9-C10=109.40              H30-C9-C8=109.80               
H30-C9-C10=110.02              H30-C9-H29=107.81              C11-C10-C9=110.19              H31-C10-C9=110.07              
H31-C10-C11=109.95             H32-C10-C9=109.34              H32-C10-C11=109.41             H32-C10-H31=107.84             

 selected dihedral angles (degree)
 ---------------------------------
O3-C2-C1-H19=  4.71           O3-C2-C1-H20=246.58           O3-C2-C1-H21=124.89           N4-C2-C1-H19=185.29           
N4-C2-C1-H20= 67.15           N4-C2-C1-H21=305.46           C5-N4-C2-C1=  0.76            C5-N4-C2-O3=181.33            
C13-N4-C2-C1=185.51           C13-N4-C2-O3=  6.08           C6-C5-N4-C2=218.99            C6-C5-N4-C13= 33.92           
C7-C5-N4-C2= 90.49            C7-C5-N4-C13=265.43           H22-C5-N4-C2=334.69           H22-C5-N4-C13=149.63          
H23-C6-C5-N4=281.61           H23-C6-C5-C7= 48.27           H23-C6-C5-H22=165.54          H24-C6-C5-N4=161.02           
H24-C6-C5-C7=287.68           H24-C6-C5-H22= 44.95          H25-C6-C5-N4= 42.80           H25-C6-C5-C7=169.46           
H25-C6-C5-H22=286.73          C8-C7-C5-N4=185.27            C8-C7-C5-C6= 58.05            C8-C7-C5-H22=301.10           
C12-C7-C5-N4= 60.58           C12-C7-C5-C6=293.36           C12-C7-C5-H22=176.41          H26-C7-C5-N4=302.62           
H26-C7-C5-C6=175.40           H26-C7-C5-H22= 58.45          C9-C8-C7-C5=173.91            C9-C8-C7-C12=301.39           
C9-C8-C7-H26= 57.32           H27-C8-C7-C5= 52.39           H27-C8-C7-C12=179.87          H27-C8-C7-H26=295.80          
H28-C8-C7-C5=293.85           H28-C8-C7-C12= 61.33          H28-C8-C7-H26=177.26          C10-C9-C8-C7= 58.57           
C10-C9-C8-H27=180.04          C10-C9-C8-H28=298.13          H29-C9-C8-C7=298.14           H29-C9-C8-H27= 59.62          
H29-C9-C8-H28=177.71          H30-C9-C8-C7=179.91           H30-C9-C8-H27=301.39          H30-C9-C8-H28= 59.48          
C11-C10-C9-C8=302.57          C11-C10-C9-H29= 63.10         C11-C10-C9-H30=181.36         H31-C10-C9-C8=181.15          
H31-C10-C9-H29=301.67         H31-C10-C9-H30= 59.94         H32-C10-C9-C8= 62.86          H32-C10-C9-H29=183.39         
H32-C10-C9-H30=301.65         
           -------------------------------------------------
          |                Final Singlepoint                |
           -------------------------------------------------

          ...................................................
          :                      SETUP                      :
          :.................................................:
          :  # basis functions                  98          :
          :  # atomic orbitals                  98          :
          :  # shells                           62          :
          :  # electrons                       104          :
          :  max. iterations                   250          :
          :  Hamiltonian                  GFN2-xTB          :
          :  restarted?                      false          :
          :  GBSA solvation                  false          :
          :  PC potential                    false          :
          :  electronic temp.          300.0000000     K    :
          :  accuracy                    1.0000000          :
          :  -> integral cutoff          0.2500000E+02      :
          :  -> integral neglect         0.1000000E-07      :
          :  -> SCF convergence          0.1000000E-05 Eh   :
          :  -> wf. convergence          0.1000000E-03 e    :
          :  Broyden damping             0.4000000          :
          :  net charge                          0          :
          :  unpaired electrons                  0          :
          ...................................................

 iter      E             dE          RMSdq      gap      omega  full diag
   1    -58.0174219 -0.580174E+02  0.323E-05    4.57       0.0  T
   2    -58.0174219 -0.672173E-11  0.180E-05    4.57     836.2  T
   3    -58.0174219 -0.376588E-12  0.901E-06    4.57    1673.6  T

   *** convergence criteria satisfied after 3 iterations ***

         #    Occupation            Energy/Eh            Energy/eV
      -------------------------------------------------------------
         1        2.0000           -0.6911052             -18.8059
       ...           ...                  ...                  ...
        46        2.0000           -0.4261232             -11.5954
        47        2.0000           -0.4214568             -11.4684
        48        2.0000           -0.4162553             -11.3269
        49        2.0000           -0.3971318             -10.8065
        50        2.0000           -0.3864226             -10.5151
        51        2.0000           -0.3788401             -10.3088
        52        2.0000           -0.3686064             -10.0303 (HOMO)
        53                         -0.2007372              -5.4623 (LUMO)
        54                         -0.1903214              -5.1789
        55                         -0.0188389              -0.5126
        56                          0.0078211               0.2128
        57                          0.0498523               1.3565
       ...                                ...                  ...
        98                          0.6347266              17.2718
      -------------------------------------------------------------
                  HL-Gap            0.1678693 Eh            4.5680 eV
             Fermi-level           -0.2846718 Eh           -7.7463 eV

 SCC (total)                   0 d,  0 h,  0 min,  0.025 sec
 SCC setup                      ...        0 min,  0.000 sec (  0.559%)
 Dispersion                     ...        0 min,  0.000 sec (  0.919%)
 classical contributions        ...        0 min,  0.000 sec (  0.444%)
 integral evaluation            ...        0 min,  0.005 sec ( 19.351%)
 iterations                     ...        0 min,  0.004 sec ( 16.456%)
 molecular gradient             ...        0 min,  0.015 sec ( 61.825%)
 printout                       ...        0 min,  0.000 sec (  0.407%)

         :::::::::::::::::::::::::::::::::::::::::::::::::::::
         ::                     SUMMARY                     ::
         :::::::::::::::::::::::::::::::::::::::::::::::::::::
         :: total energy             -57.284706862727 Eh    ::
         :: gradient norm              0.000663850333 Eh/a0 ::
         :: HOMO-LUMO gap              4.567954935822 eV    ::
         ::.................................................::
         :: SCC energy               -58.016832456974 Eh    ::
         :: -> isotropic ES            0.082405623814 Eh    ::
         :: -> anisotropic ES          0.006992755130 Eh    ::
         :: -> anisotropic XC          0.022558552365 Eh    ::
         :: -> dispersion             -0.041311931734 Eh    ::
         :: repulsion energy           0.732125594247 Eh    ::
         :: add. restraining           0.000000000000 Eh    ::
         :: total charge               0.000000000000 e     ::
         :::::::::::::::::::::::::::::::::::::::::::::::::::::

           -------------------------------------------------
          |                Property Printout                |
           -------------------------------------------------

    * Orbital Energies and Occupations

         #    Occupation            Energy/Eh            Energy/eV
      -------------------------------------------------------------
         1        2.0000           -0.6911052             -18.8059
       ...           ...                  ...                  ...
        40        2.0000           -0.4615944             -12.5606
        41        2.0000           -0.4587451             -12.4831
        42        2.0000           -0.4514140             -12.2836
        43        2.0000           -0.4490668             -12.2197
        44        2.0000           -0.4390779             -11.9479
        45        2.0000           -0.4351198             -11.8402
        46        2.0000           -0.4261232             -11.5954
        47        2.0000           -0.4214568             -11.4684
        48        2.0000           -0.4162553             -11.3269
        49        2.0000           -0.3971318             -10.8065
        50        2.0000           -0.3864226             -10.5151
        51        2.0000           -0.3788401             -10.3088
        52        2.0000           -0.3686064             -10.0303 (HOMO)
        53                         -0.2007372              -5.4623 (LUMO)
        54                         -0.1903214              -5.1789
        55                         -0.0188389              -0.5126
        56                          0.0078211               0.2128
        57                          0.0498523               1.3565
        58                          0.0594498               1.6177
        59                          0.0714944               1.9455
        60                          0.0758813               2.0648
        61                          0.0945064               2.5716
        62                          0.0987870               2.6881
        63                          0.1031735               2.8075
       ...                                ...                  ...
        98                          0.6347266              17.2718
      -------------------------------------------------------------
                  HL-Gap            0.1678693 Eh            4.5680 eV
             Fermi-level           -0.2846718 Eh           -7.7463 eV

     #   Z          covCN         q      C6AA      α(0)
     1   6 C        3.754    -0.135    23.157     6.862
     2   6 C        2.775     0.272    22.412     7.754
     3   8 O        0.859    -0.458    22.877     6.413
     4   7 N        2.737    -0.098    23.157     7.147
     5   6 C        3.788     0.033    20.040     6.376
     6   6 C        3.752    -0.116    22.774     6.805
     7   6 C        3.855    -0.027    21.018     6.520
     8   6 C        3.808    -0.060    21.645     6.623
     9   6 C        3.806    -0.055    21.560     6.610
    10   6 C        3.806    -0.056    21.581     6.613
    11   6 C        3.806    -0.055    21.560     6.610
    12   6 C        3.806    -0.056    21.584     6.614
    13   6 C        3.765    -0.020    20.970     6.527
    14   6 C        2.764     0.267    22.498     7.768
    15   8 O        0.859    -0.446    22.616     6.376
    16   7 N        2.731    -0.087    22.940     7.114
    17   6 C        3.695    -0.054    21.721     6.667
    18   6 C        3.703    -0.050    21.628     6.649
    19   1 H        0.925     0.068     2.112     2.273
    20   1 H        0.925     0.059     2.213     2.327
    21   1 H        0.925     0.049     2.338     2.391
    22   1 H        0.924     0.050     2.314     2.379
    23   1 H        0.925     0.034     2.528     2.486
    24   1 H        0.925     0.042     2.416     2.431
    25   1 H        0.925     0.074     2.044     2.236
    26   1 H        0.924     0.031     2.576     2.510
    27   1 H        0.924     0.026     2.644     2.543
    28   1 H        0.924     0.039     2.466     2.456
    29   1 H        0.924     0.031     2.574     2.509
    30   1 H        0.924     0.029     2.604     2.524
    31   1 H        0.924     0.028     2.618     2.530
    32   1 H        0.924     0.032     2.560     2.502
    33   1 H        0.924     0.031     2.571     2.508
    34   1 H        0.924     0.027     2.627     2.535
    35   1 H        0.924     0.029     2.595     2.519
    36   1 H        0.924     0.030     2.589     2.516
    37   1 H        0.924     0.073     2.056     2.243
    38   1 H        0.925     0.060     2.203     2.321
    39   1 H        0.924     0.059     2.212     2.326
    40   1 H        0.925     0.052     2.294     2.368
    41   1 H        0.925     0.064     2.155     2.295
    42   1 H        0.925     0.089     1.890     2.150
    43   1 H        0.924     0.052     2.296     2.369
    44   1 H        0.924     0.046     2.365     2.405

 Mol. C6AA /au·bohr⁶  :      15424.299615
 Mol. C8AA /au·bohr⁸  :     332996.937620
 Mol. α(0) /au        :        184.699182


Wiberg/Mayer (AO) data.
largest (>0.10) Wiberg bond orders for each atom

 ---------------------------------------------------------------------------
     #   Z sym  total        # sym  WBO       # sym  WBO       # sym  WBO
 ---------------------------------------------------------------------------
     1   6 C    3.995 --     2 C    0.986    19 H    0.983    21 H    0.972
                            20 H    0.965
     2   6 C    3.951 --     3 O    1.666     4 N    1.238     1 C    0.986
     3   8 O    1.978 --     2 C    1.666     4 N    0.188
     4   7 N    3.487 --     2 C    1.238    13 C    0.995     5 C    0.975
                             3 O    0.188
     5   6 C    3.968 --     6 C    1.005     4 N    0.975     7 C    0.966
                            22 H    0.956
     6   6 C    3.992 --     5 C    1.005    24 H    0.983    23 H    0.981
                            25 H    0.975
     7   6 C    3.994 --    12 C    0.999     8 C    0.997     5 C    0.966
                            26 H    0.963
     8   6 C    3.997 --     9 C    1.008     7 C    0.997    27 H    0.977
                            28 H    0.975
     9   6 C    3.997 --    10 C    1.009     8 C    1.008    29 H    0.977
                            30 H    0.977
    10   6 C    3.998 --    11 C    1.009     9 C    1.009    31 H    0.978
                            32 H    0.977
    11   6 C    3.998 --    10 C    1.009    12 C    1.006    34 H    0.978
                            33 H    0.978
    12   6 C    3.998 --    11 C    1.006     7 C    0.999    35 H    0.975
                            36 H    0.974
    13   6 C    3.979 --     4 N    0.995    37 H    0.955    38 H    0.952
                            14 C    0.944
    14   6 C    3.954 --    15 O    1.665    16 N    1.259    13 C    0.944
    15   8 O    1.999 --    14 C    1.665    16 N    0.195
    16   7 N    3.496 --    14 C    1.259    17 C    1.004    18 C    0.995
                            15 O    0.195
    17   6 C    3.973 --    16 N    1.004    41 H    0.980    40 H    0.979
                            39 H    0.972
    18   6 C    3.965 --    16 N    0.995    44 H    0.978    43 H    0.977
                            42 H    0.973
    19   1 H    0.995 --     1 C    0.983
    20   1 H    0.996 --     1 C    0.965
    21   1 H    0.998 --     1 C    0.972
    22   1 H    0.997 --     5 C    0.956
    23   1 H    0.999 --     6 C    0.981
    24   1 H    0.997 --     6 C    0.983
    25   1 H    0.994 --     6 C    0.975
    26   1 H    0.999 --     7 C    0.963
    27   1 H    0.999 --     8 C    0.977
    28   1 H    0.998 --     8 C    0.975
    29   1 H    0.999 --     9 C    0.977
    30   1 H    0.999 --     9 C    0.977
    31   1 H    0.999 --    10 C    0.978
    32   1 H    0.999 --    10 C    0.977
    33   1 H    0.999 --    11 C    0.978
    34   1 H    0.999 --    11 C    0.978
    35   1 H    0.999 --    12 C    0.975
    36   1 H    0.999 --    12 C    0.974
    37   1 H    0.995 --    13 C    0.955
    38   1 H    0.996 --    13 C    0.952
    39   1 H    0.997 --    17 C    0.972
    40   1 H    0.997 --    17 C    0.979
    41   1 H    0.996 --    17 C    0.980
    42   1 H    0.992 --    18 C    0.973
    43   1 H    0.997 --    18 C    0.977
    44   1 H    0.998 --    18 C    0.978
 ---------------------------------------------------------------------------

Topologies differ in total number of bonds
Writing topology from bond orders to xtbtopo.mol

molecular dipole:
                 x           y           z       tot (Debye)
 q only:       -0.567      -1.444       0.147
   full:       -0.776      -1.493       0.162       4.296
molecular quadrupole (traceless):
                xx          xy          yy          xz          yz          zz
 q only:       -1.938     -23.094      -5.811      -4.567      21.001       7.749
  q+dip:       -6.627     -25.533      -1.976      -3.530      21.428       8.603
   full:       -5.772     -25.310      -2.673      -3.491      21.774       8.445

           -------------------------------------------------
          |                Geometry Summary                 |
           -------------------------------------------------

      molecular mass/u    :      254.3689784
   center of mass at/Å    :        2.7165818       1.5855653      -1.7321410
  moments of inertia/u·Å² :        0.6814023E+03   0.2286266E+04   0.2452075E+04
rotational constants/cm⁻¹ :        0.2473962E-01   0.7373435E-02   0.6874844E-02

 * 41 selected distances

     #   Z          #   Z                                           value/Å
     2   6 C        3   8 O                                       1.2190766
     2   6 C        4   7 N                                       1.3584648
     4   7 N        5   6 C                                       1.4560329
     5   6 C        6   6 C                                       1.5284739
     7   6 C        8   6 C                                       1.5302508 (max)
Note: The following floating-point exceptions are signalling: IEEE_UNDERFLOW_FLAG IEEE_DENORMAL
normal termination of xtb
     8   6 C        9   6 C                                       1.5259412
     9   6 C       10   6 C                                       1.5251079
    10   6 C       11   6 C                                       1.5250004
     7   6 C       12   6 C                                       1.5293668
    11   6 C       12   6 C                                       1.5278197
     4   7 N       13   6 C                                       1.4492051
    14   6 C       15   8 O                                       1.2167860
    14   6 C       16   7 N                                       1.3497135
    16   7 N       17   6 C                                       1.4436339
    16   7 N       18   6 C                                       1.4460642
     1   6 C       19   1 H                                       1.0867493
     1   6 C       20   1 H                                       1.0879459
     1   6 C       21   1 H                                       1.0864398
     5   6 C       22   1 H                                       1.0942701
     6   6 C       23   1 H                                       1.0863884
     6   6 C       24   1 H                                       1.0862432 (min)
     6   6 C       25   1 H                                       1.0869183
     7   6 C       26   1 H                                       1.0969187
     8   6 C       27   1 H                                       1.0923565
     8   6 C       28   1 H                                       1.0909706
     9   6 C       29   1 H                                       1.0924792
     9   6 C       30   1 H                                       1.0919737
    10   6 C       31   1 H                                       1.0918714
    10   6 C       32   1 H                                       1.0926327
    11   6 C       33   1 H                                       1.0926504
    11   6 C       34   1 H                                       1.0922892
    12   6 C       35   1 H                                       1.0909471
    12   6 C       36   1 H                                       1.0919711
    13   6 C       37   1 H                                       1.0929003
    13   6 C       38   1 H                                       1.0882949
    17   6 C       39   1 H                                       1.0943154
    17   6 C       40   1 H                                       1.0894657
    17   6 C       41   1 H                                       1.0887540
    18   6 C       42   1 H                                       1.0880802
    18   6 C       43   1 H                                       1.0919676
    18   6 C       44   1 H                                       1.0923731

 * 4 distinct bonds (by element types)

   Z      Z             #   av. dist./Å        max./Å        min./Å
   1 H    6 C          26     1.0906987     1.0969187     1.0862432
   6 C    6 C           7     1.5274229     1.5302508     1.5250004
   6 C    7 N           6     1.4171857     1.4560329     1.3497135
   6 C    8 O           2     1.2179313     1.2190766     1.2167860


optimized geometry written to: xtbopt.xyz


           -------------------------------------------------
          | TOTAL ENERGY              -57.284706862727 Eh   |
          | GRADIENT NORM               0.000663850333 Eh/α |
          | HOMO-LUMO GAP               4.567954935822 eV   |
           -------------------------------------------------

------------------------------------------------------------------------
 * finished run on 2026/01/25 at 20:06:36.540     
------------------------------------------------------------------------
 total:
 * wall-time:     0 d,  0 h,  0 min,  2.864 sec
 *  cpu-time:     0 d,  0 h,  0 min,  1.270 sec
 * ratio c/w:     0.443 speedup
 SCF:
 * wall-time:     0 d,  0 h,  0 min,  0.035 sec
 *  cpu-time:     0 d,  0 h,  0 min,  0.034 sec
 * ratio c/w:     0.995 speedup
 ANC optimizer:
 * wall-time:     0 d,  0 h,  0 min,  1.236 sec
 *  cpu-time:     0 d,  0 h,  0 min,  1.226 sec
 * ratio c/w:     0.992 speedup

