44
 energy: -57.268218803969 gnorm: 0.070307706935 xtb: 6.7.1 (edcfbbe)
C            2.39980000000000        4.98330000000000       -1.57210000000000
C            3.04120000000000        3.93340000000000       -2.44430000000000
O            3.51430000000000        4.26590000000000       -3.53500000000000
N            3.02520000000000        2.60470000000000       -2.01460000000000
C            2.56250000000000        2.16470000000000       -0.66850000000000
C            3.38470000000000        1.01560000000000       -0.06940000000000
C            1.01390000000000        1.91710000000000       -0.60770000000000
C            0.54020000000000        1.80600000000000        0.86090000000000
C           -0.95270000000000        1.52620000000000        0.99620000000000
C           -1.35850000000000        0.29490000000000        0.19650000000000
C           -0.96580000000000        0.44910000000000       -1.26800000000000
C            0.53510000000000        0.70350000000000       -1.42570000000000
C            3.57670000000000        1.62230000000000       -2.96590000000000
C            5.08530000000000        1.30700000000000       -2.82430000000000
O            5.78990000000000        1.85750000000000       -1.97540000000000
N            5.59330000000000        0.30450000000000       -3.65670000000000
C            4.89340000000000       -0.26120000000000       -4.79790000000000
C            6.88320000000000       -0.29080000000000       -3.34200000000000
H            2.61160000000000        5.97170000000000       -1.99420000000000
H            2.80030000000000        4.97740000000000       -0.55850000000000
H            1.31650000000000        4.84740000000000       -1.56580000000000
H            2.75270000000000        3.01050000000000       -0.00010000000000
H            3.22600000000000        0.06780000000000       -0.58980000000000
H            3.14570000000000        0.86510000000000        0.98720000000000
H            4.45240000000000        1.24160000000000       -0.09440000000000
H            0.51530000000000        2.79640000000000       -1.03460000000000
H            0.78010000000000        2.73240000000000        1.39630000000000
H            1.07120000000000        0.99650000000000        1.37240000000000
H           -1.52650000000000        2.39580000000000        0.65350000000000
H           -1.20160000000000        1.37400000000000        2.05230000000000
H           -2.43990000000000        0.13810000000000        0.27900000000000
H           -0.87400000000000       -0.59440000000000        0.61560000000000
H           -1.52880000000000        1.27960000000000       -1.71090000000000
H           -1.24520000000000       -0.45540000000000       -1.81920000000000
H            0.74490000000000        0.86250000000000       -2.48940000000000
H            1.07170000000000       -0.20140000000000       -1.12150000000000
H            3.41750000000000        2.00040000000000       -3.98050000000000
H            3.01370000000000        0.68950000000000       -2.86660000000000
H            4.02060000000000        0.32290000000000       -5.08910000000000
H            4.57880000000000       -1.27880000000000       -4.54790000000000
H            5.57730000000000       -0.29100000000000       -5.65200000000000
H            7.40630000000000        0.24200000000000       -2.54430000000000
H            7.51140000000000       -0.29530000000000       -4.23910000000000
H            6.71240000000000       -1.32130000000000       -3.01850000000000
44
 energy: -57.276527948957 gnorm: 0.020995873246 xtb: 6.7.1 (edcfbbe)
C            2.41287496379104        4.95820654734478       -1.56581806531489
C            3.04921600172954        3.89550048899431       -2.43386609812594
O            3.49927298824958        4.18917681628704       -3.52886540605576
N            3.03052298981949        2.58840100450061       -2.00354486952987
C            2.55748635586212        2.17344668212921       -0.66866743731406
C            3.38708749734063        1.02103223313025       -0.09966011641595
C            1.01696316761139        1.91277449048062       -0.61337709288960
C            0.55366952513536        1.79818230360001        0.85137541157497
C           -0.94482817841218        1.53455997247816        0.98221272022765
C           -1.35220596832201        0.29754152332057        0.19264708682606
C           -0.95770517528580        0.45623478522839       -1.27001381517754
C            0.54534470321733        0.69769519204986       -1.42185661354481
C            3.56758793351183        1.61435377986056       -2.95124623898136
C            5.06665324056524        1.29851386710834       -2.79669458373970
O            5.76496369021496        1.82792459349843       -1.95441957350043
N            5.56776299319383        0.32743838176964       -3.63157436895735
C            4.88767885219790       -0.25315756120843       -4.76965577531490
C            6.85834862344962       -0.27122675392249       -3.34616316365884
H            2.62158173671222        5.93162060393433       -2.01291722666366
H            2.80485172804226        4.96052735936209       -0.55205666475098
H            1.33259182526284        4.82553180574839       -1.53862422823807
H            2.74319582055450        3.02614943462831       -0.00717055413777
H            3.22479558294460        0.07618254599885       -0.61435290006348
H            3.13767747174442        0.88112540067156        0.95164595490863
H            4.44766396721392        1.26315684323891       -0.14680844573428
H            0.52535491307479        2.79372769726639       -1.04164684035993
H            0.79924822274055        2.72430591628951        1.37995594860146
H            1.08366496744403        0.98388335472768        1.35011508749243
H           -1.51521909756616        2.39888918535648        0.62923527507091
H           -1.19178651459733        1.39013047641443        2.03820644862272
H           -2.43191511981378        0.14291838559998        0.27345840856033
H           -0.86151405415058       -0.58556627556351        0.61235807823054
H           -1.51413566879080        1.29142584285653       -1.70599878545613
H           -1.23484634831808       -0.44549351988293       -1.82332827890809
H            0.76242220986378        0.86363014142879       -2.48077447956811
H            1.07782877428896       -0.20132895128663       -1.10161851676695
H            3.41041441003658        2.03260532127028       -3.95220528468623
H            3.00639106783730        0.68171966214476       -2.85935513369886
H            4.02179875379888        0.33098049620308       -5.06301138296102
H            4.57137431262921       -1.27729596238365       -4.54637884880991
H            5.57464304557470       -0.28455338656581       -5.62025311629867
H            7.35665560422117        0.28079332028337       -2.55227038459589
H            7.49225754454687       -0.26524148931151       -4.23678169012313
H            6.71641064083529       -1.30872255507946       -3.02423443977351
44
 energy: -57.278898985001 gnorm: 0.010467108179 xtb: 6.7.1 (edcfbbe)
C            2.43004066173585        4.93730692410466       -1.56060248271433
C            3.03675332091986        3.86308319270864       -2.44020217223577
O            3.47678066552020        4.13862597382897       -3.54000567333673
N            3.02573746974596        2.57277200265308       -2.00029157497547
C            2.55673209700785        2.16767284025963       -0.67442786471340
C            3.39335205067761        1.02030840206478       -0.11386087089180
C            1.02180831006083        1.90903589122585       -0.62032358341783
C            0.56643285974963        1.79487264902039        0.84163695946036
C           -0.93505979784114        1.54580625370740        0.96929380426907
C           -1.34172657431278        0.30430860909218        0.18513377553076
C           -0.94579586798045        0.46127549093446       -1.27768615447338
C            0.55895168704826        0.69140825718502       -1.42230795698464
C            3.54985394817698        1.59892222528006       -2.94059660864686
C            5.04329670470228        1.28825847225174       -2.76855274687247
O            5.73284331254282        1.80530241480335       -1.91748013400623
N            5.54027206376721        0.34257023094301       -3.60835209201696
C            4.86883215826347       -0.24493122113911       -4.74140317795029
C            6.83867288419967       -0.23945958695068       -3.34237320714701
H            2.63718037267885        5.89777778324051       -2.02861145754791
H            2.83522803508953        4.94296461420408       -0.55339001857420
H            1.35086483669863        4.80738324297870       -1.50518899228875
H            2.73731975335287        3.02189117024134       -0.01453062807445
H            3.22547849337715        0.08342380931453       -0.63513924505846
H            3.15302396039277        0.87739708094422        0.93598339432769
H            4.44718509274009        1.27595812169384       -0.18752466219444
H            0.53147699995505        2.78848685000162       -1.05216277443169
H            0.82431952905915        2.71467737851875        1.37253787442900
H            1.08723126412703        0.96916725437265        1.32728280648335
H           -1.49291195323724        2.40903286320590        0.59939724251833
H           -1.18646821262259        1.41534988553957        2.02512169690292
H           -2.42001118711561        0.15010537172361        0.26472717991821
H           -0.84717356304237       -0.57375889396393        0.60723515316427
H           -1.49050838089080        1.30478431699898       -1.70822432269466
H           -1.22643195503229       -0.43551570687122       -1.83521250279504
H            0.78638601902972        0.84916330000767       -2.47875275333202
H            1.08194476048602       -0.20397553782330       -1.08163963616140
H            3.40152364055498        2.04239819985832       -3.93274285949762
H            2.98847646524662        0.66730662683226       -2.85832735378001
H            4.00421209008098        0.33718809008466       -5.03836007385885
H            4.55491487689176       -1.27246204926119       -4.52736668391304
H            5.56235721186968       -0.27710862147037       -5.58640460317448
H            7.31789533881821        0.32516168205242       -2.54674713324952
H            7.46818216730524       -0.21238176920171       -4.23404530714809
H            6.72262639020257       -1.28385408519512       -3.02951257884610
44
 energy: -57.279758257509 gnorm: 0.006785534943 xtb: 6.7.1 (edcfbbe)
C            2.44641776178852        4.92926263864275       -1.55806907168234
C            3.03000983018308        3.84891616528657       -2.44555896234747
O            3.43802825645294        4.11535752745923       -3.56311015457565
N            3.02019293836507        2.56548828662857       -1.99682297545023
C            2.55992045421809        2.16542032211346       -0.67254683582648
C            3.39813853205858        1.01571062580657       -0.11882426444118
C            1.02877242512046        1.90333084222260       -0.62360715663047
C            0.57519449026578        1.78895170154096        0.83600055230184
C           -0.92928120969766        1.55685400125502        0.95588631885385
C           -1.33635820266621        0.31178609423118        0.17685628682897
C           -0.93719216610104        0.46487503881527       -1.28583504282600
C            0.56990814613030        0.68250723649088       -1.42104393202718
C            3.53128108687966        1.58611215318380       -2.93398689702315
C            5.02182451641939        1.27811152062467       -2.75129481709656
O            5.70314082040686        1.79333024782775       -1.88964391786428
N            5.52267500128103        0.34683062898192       -3.59599876558902
C            4.84965586507364       -0.24529264409255       -4.72287231134828
C            6.83361357071139       -0.20895093422203       -3.34014132401474
H            2.64145459675747        5.88306126389667       -2.04200833101181
H            2.88267186261613        4.93943866885233       -0.56345770211942
H            1.36855591613184        4.79601231091308       -1.46804461281809
H            2.73973715480243        3.01825291329793       -0.01071756514259
H            3.22691897208659        0.08209564015355       -0.64504805266139
H            3.16848785041697        0.86845732115916        0.93146403526499
H            4.44860483391800        1.27609462120795       -0.20439943503616
H            0.53740399450611        2.78037683838513       -1.05949001639198
H            0.84596673389708        2.70209210964188        1.37138558654923
H            1.08647223507505        0.95278635719422        1.31368018727306
H           -1.47372665115197        2.42175820302948        0.57024018608249
H           -1.19055524331043        1.43948126410315        2.01037408275302
H           -2.41419881148196        0.15776649258010        0.25513460223977
H           -0.84033592015897       -0.56338323117042        0.60249539921720
H           -1.47020255240519        1.31589817665768       -1.71574600730089
H           -1.22432343082892       -0.42769839541168       -1.84602759706867
H            0.80805145663295        0.82846716435216       -2.47645502692514
H            1.08409579090926       -0.21178167468212       -1.06458537800444
H            3.39187237775555        2.03390258467021       -3.92464325457739
H            2.96770350583491        0.65638120618036       -2.85579078088356
H            3.98374533463468        0.33445196970122       -5.02189892618822
H            4.53657300585451       -1.27164562576290       -4.50310876023429
H            5.54394534049254       -0.27998460400440       -5.56662702308852
H            7.29832563737036        0.36262116378043       -2.54024035655845
H            7.45797395762428       -0.15769365604863       -4.23417228420447
H            6.74093993513103       -1.25811053547280       -3.03569969840593
44
 energy: -57.280418119562 gnorm: 0.007792774306 xtb: 6.7.1 (edcfbbe)
C            2.46826934860489        4.92540674389019       -1.55354992525833
C            3.00775279357832        3.83629252484259       -2.45811811499348
O            3.38557147262768        4.09857760835265       -3.58937151124198
N            3.01136936670383        2.55850323371375       -1.99634183154261
C            2.56402282636192        2.16064790539691       -0.66992230044410
C            3.40274839106901        1.00994543895596       -0.11621054214662
C            1.03618036346572        1.89496204369539       -0.62359640783416
C            0.58017044907623        1.78052956037534        0.83346894424891
C           -0.92760828014241        1.57058198736397        0.94101703610976
C           -1.33649805481822        0.32268159075601        0.16711613609496
C           -0.92884141015119        0.46866685020009       -1.29427895591351
C            0.58124588207408        0.66973205664542       -1.41663468458770
C            3.51328834601611        1.57313642167436       -2.92973003598047
C            5.00282611545668        1.27149922285485       -2.74509090168615
O            5.67704614909886        1.79373969864899       -1.87891882613232
N            5.51104088783529        0.34876364262980       -3.59042949372264
C            4.82989340710289       -0.25586533245179       -4.70492645931680
C            6.83883868142145       -0.17117009828285       -3.34390053521709
H            2.64501521968130        5.87434271662635       -2.05266557785216
H            2.95415269948666        4.93771467950420       -0.57943361291755
H            1.39350712299768        4.79368588642293       -1.41302622132595
H            2.74316778711656        3.01261924964602       -0.00672906302869
H            3.22915497576444        0.07742192058056       -0.64467985878335
H            3.17962602151971        0.86016614513389        0.93465365650252
H            4.45153450221370        1.27055981039373       -0.20563956760107
H            0.54252117529706        2.76832888877885       -1.06519012761780
H            0.86670765682477        2.68473154467082        1.37606937239491
H            1.07792302195641        0.93185837319230        1.30444995971866
H           -1.45359065579810        2.43884546856662        0.53607217491001
H           -1.20514966370737        1.46938775226991        1.99283801455068
H           -2.41445733742554        0.16969002554259        0.24225901166143
H           -0.84139479800405       -0.55033927205048        0.59827199700289
H           -1.44675797147663        1.32761717083767       -1.72749274286579
H           -1.22415944301861       -0.41937811848002       -1.85704911932907
H            0.83229735252620        0.80038045314436       -2.47111358361202
H            1.08384520485020       -0.22469821786057       -1.04328358826102
H            3.37533829403017        2.01637241683988       -3.92127467020255
H            2.94868851879441        0.64493808745685       -2.84897466926415
H            3.96286542782929        0.32175293862935       -5.00699589532807
H            4.51425310595278       -1.27723472859112       -4.46770541828392
H            5.51949242158083       -0.30121502313191       -5.55115856596146
H            7.28605582354468        0.40797262129394       -2.53867127093696
H            7.45720005882317       -0.08978057121732       -4.24003259766277
H            6.77694674325953       -1.22467131746037       -3.04807962634259
44
 energy: -57.280959341995 gnorm: 0.010495951037 xtb: 6.7.1 (edcfbbe)
C            2.49029560408600        4.92267892744952       -1.54693531188428
C            2.99138332079500        3.82768668112890       -2.46534371885719
O            3.33235969064136        4.08649713033355       -3.61069062109847
N            3.00656788315574        2.55223269772694       -1.99640113039426
C            2.56788536049818        2.15517673649494       -0.66678191720924
C            3.40662480088240        1.00490519881025       -0.11004410267561
C            1.04189466734786        1.88563571229650       -0.62032177275454
C            0.57955031022754        1.77226197798370        0.83452092085498
C           -0.93128075200503        1.58488075484946        0.92774451689383
C           -1.34404228499721        0.33515712243443        0.15875344888174
C           -0.92455003809616        0.47080231873333       -1.30046052958305
C            0.58821014599760        0.65606341861567       -1.40889429931078
C            3.50024331369206        1.56253020274834       -2.92960709948787
C            4.99144649259521        1.27173219185297       -2.75003502035190
O            5.66265918140767        1.80915007178478       -1.88876325700826
N            5.50762356458698        0.35043497531022       -3.59214217044702
C            4.81565559701993       -0.27524015311988       -4.68969788249486
C            6.85207659232050       -0.13277419067223       -3.35564448237889
H            2.64275881191991        5.86918613952543       -2.05908518827294
H            3.02826927880821        4.93880850348362       -0.59771652321922
H            1.42232024358247        4.79300660898528       -1.35220580256950
H            2.74784110055785        3.00752117432497       -0.00406779577568
H            3.23266387429954        0.07108921087956       -0.63703472322806
H            3.18239770265888        0.85667765945693        0.94105248315004
H            4.45589512238834        1.26310213560995       -0.19628887364523
H            0.54605678151561        2.75545600878371       -1.06729168699080
H            0.87976736674546        2.66771767573780        1.38452750703932
H            1.06192763671072        0.91244836630484        1.30248853502502
H           -1.43823609077001        2.45673807165453        0.50526577688303
H           -1.22660291044106        1.49940348835840        1.97611543911524
H           -2.42284784209672        0.18595238420323        0.22870822250590
H           -0.85405608989837       -0.53736720959504        0.59732934061771
H           -1.42752382683392        1.33534778090945       -1.74086937175979
H           -1.22669483628710       -0.41444263622990       -1.86396145426345
H            0.85111737180709        0.77216760008108       -2.46218035506047
H            1.07928241747499       -0.23903230135938       -1.02134285507487
H            3.35530768845681        1.99753794788442       -3.92349126704783
H            2.93714836900814        0.63402859899748       -2.84134623036366
H            3.94921670913899        0.30127763317333       -4.99770156419401
H            4.49400356965255       -1.28867372378980       -4.42638432397562
H            5.49791680337609       -0.34129908312145       -5.54019634748620
H            7.28305199750292        0.45237399858756       -2.54563932899535
H            7.46381893704231       -0.02160231455888       -4.25323719952146
H            6.82269636352541       -1.18953549304747       -3.06870198358694
44
 energy: -57.281538481715 gnorm: 0.009067500962 xtb: 6.7.1 (edcfbbe)
C            2.51400769097321        4.91862605028211       -1.53689734789267
C            2.97259067767993        3.81869523703108       -2.47039520848289
O            3.28491877301115        4.07596098324536       -3.62201059039463
N            3.00104969249803        2.54375252618804       -1.99810050985970
C            2.57049221123408        2.14789784848790       -0.66375373804528
C            3.41161416401956        1.00080119820777       -0.10282916334706
C            1.04541054619952        1.87448342981099       -0.61504087539138
C            0.57489407314925        1.76421341226937        0.83818636489629
C           -0.93910322366506        1.60108219959318        0.91534886827729
C           -1.35957242533172        0.35070988826705        0.15160736432472
C           -0.92433634807533        0.47169436242940       -1.30440694616172
C            0.59098651941834        0.64049769710311       -1.39820960285682
C            3.49052598300998        1.55215241753831       -2.93237918071503
C            4.98634006726694        1.28021823774169       -2.76435038364244
O            5.65638428572043        1.83914019442179       -1.91467754218098
N            5.51074384708931        0.35440776006266       -3.59931682724256
C            4.80676134902428       -0.30247688194136       -4.67381981197841
C            6.87129637128395       -0.09058398500329       -3.37618333839829
H            2.64084577234911        5.86397343958275       -2.05828338241466
H            3.10218691314224        4.93709633148028       -0.61738896707099
H            1.45804920689723        4.79467248471876       -1.28695558506001
H            2.75125468336916        3.00324237381063       -0.00481704270539
H            3.23976382871295        0.06381811501645       -0.62536920108609
H            3.18209792967068        0.85705344344889        0.94860960025861
H            4.46259085835660        1.25706471061091       -0.18385299507916
H            0.54824519427460        2.74126364892663       -1.06698062913283
H            0.88675017150054        2.65137917485408        1.39494308995884
H            1.03979958286349        0.89444582066283        1.30628945749685
H           -1.42622695020304        2.47658736954863        0.47746938746896
H           -1.25227488894538        1.53090803698767        1.95949495622165
H           -2.44027996616878        0.21079834484761        0.21368930321017
H           -0.88107187236097       -0.52361370259620        0.60022171995910
H           -1.41235911655772        1.33916366837481       -1.75621115418531
H           -1.23164320694025       -0.41306183474003       -1.86583230997477
H            0.86525789714326        0.74279363350507       -2.44973187936092
H            1.07022282728748       -0.25521373888102       -0.99739117770087
H            3.32939534064433        1.97634487626327       -3.92927020949662
H            2.93480758852594        0.61999336472090       -2.83164831631933
H            3.94394816495688        0.27382948360819       -4.99435537040028
H            4.47501480140138       -1.30392336771270       -4.37443139496057
H            5.48167978282681       -0.40273341186295       -5.52746088114352
H            7.28724162765941        0.49846483675951       -2.56162899564242
H            7.47449191658018        0.05196091874509       -4.27507522105672
H            6.87730765850924       -1.14988059641367       -3.10080433269307
44
 energy: -57.282076420580 gnorm: 0.007956310481 xtb: 6.7.1 (edcfbbe)
C            2.53895566128916        4.91129037402699       -1.52355693906095
C            2.96134311820947        3.80918274248639       -2.47000162603790
O            3.23730489823347        4.06146260817545       -3.63214007701517
N            2.99703440063620        2.53312398598438       -1.99885970691178
C            2.57160317654289        2.13879315808372       -0.66067446955854
C            3.41681385581102        0.99700148970334       -0.09661557809330
C            1.04637812460953        1.86315830587853       -0.60882851091753
C            0.56686897181509        1.75823810889865        0.84288729865117
C           -0.94996754686333        1.61758772661173        0.90551611437056
C           -1.38146300410128        0.36859145046762        0.14560259505696
C           -0.92795141095191        0.47145982745944       -1.30638833542641
C            0.58960713060264        0.62574711245817       -1.38630872625724
C            3.48406744036687        1.54163653216221       -2.93535061729050
C            4.98634835162995        1.29444338891924       -2.78251729712075
O            5.65693084321707        1.87790095275132       -1.95050402128048
N            5.51769702852197        0.36180841121048       -3.60861403150288
C            4.80394192276580       -0.33231031354186       -4.65554053684652
C            6.89255346476149       -0.04678056887092       -3.40473195549369
H            2.63656310629382        5.85531289657687       -2.05573291354367
H            3.17394820662198        4.93653116459239       -0.63720140880110
H            1.49928284248267        4.78910001409055       -1.21738250755769
H            2.75244615372129        2.99822612909534       -0.00719500443834
H            3.24902449708519        0.05683975631956       -0.61441961157552
H            3.18153428628797        0.85812067119679        0.95512017014933
H            4.46901325780760        1.25455184495176       -0.17458143822830
H            0.55016281832971        2.72830372159262       -1.06495679211666
H            0.88653696884559        2.63945310204929        1.40364725831063
H            1.01505708948107        0.88134442255004        1.31371645300334
H           -1.41889486615923        2.49649535406552        0.45660226182729
H           -1.27709248133369        1.55966530505078        1.94556240367505
H           -2.46515336836128        0.24508129225485        0.19669191672381
H           -0.92188162403238       -0.51032663734999        0.60603157215805
H           -1.40302140677272        1.33839721426987       -1.77253359056013
H           -1.23751263522483       -0.41588015845219       -1.86253072571288
H            0.87408805608037        0.71668780141816       -2.43562501056569
H            1.05776601750687       -0.27017940959895       -0.97360946948061
H            3.30054601474326        1.95463427150704       -3.93465468658633
H            2.94231358720562        0.60251651253373       -2.81870203587763
H            3.94765775666460        0.24305361097642       -4.99640321605742
H            4.46050020801880       -1.31830186970777       -4.31541138111670
H            5.47485962898717       -0.47636051656503       -5.50716399064214
H            7.29762182494096        0.54354132133322       -2.58654972449231
H            7.48430896028302        0.12689874339701       -4.30585974884171
H            6.93435867340231       -1.10834185101055       -3.14423235891921
44
 energy: -57.282506246020 gnorm: 0.007258517332 xtb: 6.7.1 (edcfbbe)
C            2.56100286159796        4.90044069945080       -1.51097986812836
C            2.94855265099884        3.79617107499138       -2.46963797685497
O            3.20645715977182        4.04560275293005       -3.63206163643902
N            2.99047048638160        2.51925643045733       -1.99986482224219
C            2.57020499638761        2.12917944887671       -0.65803313895949
C            3.42068261965419        0.99318582220546       -0.09304034566894
C            1.04434813430161        1.85334685828283       -0.60417238337555
C            0.55858936743929        1.75599730272905        0.84651502909427
C           -0.96053017609339        1.63325647386444        0.89896782320400
C           -1.40510669322428        0.38717750584574        0.14139135831220
C           -0.93430180215857        0.47022968595818       -1.30648263240409
C            0.58504172429046        0.61314315200524       -1.37524494429340
C            3.47993296735950        1.52855888423971       -2.93590494803477
C            4.98907869039974        1.30981281968374       -2.79845974380472
O            5.66029621878490        1.91751942631119       -1.98610163126646
N            5.52548036485820        0.37188811395144       -3.61681544277377
C            4.80589051355101       -0.35805669473833       -4.63518556774460
C            6.91227296131223       -0.00414946107024       -3.43721481999201
H            2.63478406114270        5.84251692193204       -2.04961650467712
H            3.23516375093845        4.93033048575489       -0.65710886329891
H            1.53938280619944        4.78037267153079       -1.15644665734309
H            2.75032904523018        2.99315139050046       -0.01059755283769
H            3.25731894250269        0.05045448299037       -0.60689118832527
H            3.18429688818047        0.85743777176884        0.95917079234878