      -----------------------------------------------------------      
     |                   =====================                   |     
     |                           x T B                           |     
     |                   =====================                   |     
     |                         S. Grimme                         |     
     |          Mulliken Center for Theoretical Chemistry        |     
     |                    University of Bonn                     |     
      -----------------------------------------------------------      

   * xtb version 6.7.1 (edcfbbe) compiled by 'conda@c0858423619e' on 2025-09-04

   xtb is free software: you can redistribute it and/or modify it under
   the terms of the GNU Lesser General Public License as published by
   the Free Software Foundation, either version 3 of the License, or
   (at your option) any later version.
   
   xtb is distributed in the hope that it will be useful,
   but WITHOUT ANY WARRANTY; without even the implied warranty of
   MERCHANTABILITY or FITNESS FOR A PARTICULAR PURPOSE.  See the
   GNU Lesser General Public License for more details.
   
   Cite this work as:
   * C. Bannwarth, E. Caldeweyher, S. Ehlert, A. Hansen, P. Pracht,
     J. Seibert, S. Spicher, S. Grimme, WIREs Comput. Mol. Sci., 2020, 11,
     e01493. DOI: 10.1002/wcms.1493
   
   for GFN2-xTB:
   * C. Bannwarth, S. Ehlert and S. Grimme., J. Chem. Theory Comput., 2019,
     15, 1652-1671. DOI: 10.1021/acs.jctc.8b01176
   for GFN1-xTB:
   * S. Grimme, C. Bannwarth, P. Shushkov, J. Chem. Theory Comput., 2017,
     13, 1989-2009. DOI: 10.1021/acs.jctc.7b00118
   for GFN0-xTB:
   * P. Pracht, E. Caldeweyher, S. Ehlert, S. Grimme, ChemRxiv, 2019, preprint.
     DOI: 10.26434/chemrxiv.8326202.v1
   for GFN-FF:
   * S. Spicher and S. Grimme, Angew. Chem. Int. Ed., 2020, 59, 15665-15673.
     DOI: 10.1002/anie.202004239
   
   for ALPB and GBSA implicit solvation:
   * S. Ehlert, M. Stahn, S. Spicher, S. Grimme, J. Chem. Theory Comput.,
     2021, 17, 4250-4261. DOI: 10.1021/acs.jctc.1c00471
   
   for ddCOSMO and CPCM-X implicit solvation:
   * M. Stahn, S. Ehlert, S. Grimme, J. Phys. Chem. A,
     2023, XX, XXXX-XXXX. DOI: 10.1021/acs.jpca.3c04382
   
   for DFT-D4:
   * E. Caldeweyher, C. Bannwarth and S. Grimme, J. Chem. Phys., 2017,
     147, 034112. DOI: 10.1063/1.4993215
   * E. Caldeweyher, S. Ehlert, A. Hansen, H. Neugebauer, S. Spicher,
     C. Bannwarth and S. Grimme, J. Chem. Phys., 2019, 150, 154122.
     DOI: 10.1063/1.5090222
   * E. Caldeweyher, J.-M. Mewes, S. Ehlert and S. Grimme, Phys. Chem. Chem. Phys.
     2020, 22, 8499-8512. DOI: 10.1039/D0CP00502A
   
   for sTDA-xTB:
   * S. Grimme and C. Bannwarth, J. Chem. Phys., 2016, 145, 054103.
     DOI: 10.1063/1.4959605
   
   in the mass-spec context:
   * V. Asgeirsson, C. Bauer and S. Grimme, Chem. Sci., 2017, 8, 4879.
     DOI: 10.1039/c7sc00601b
   * J. Koopman and S. Grimme, ACS Omega 2019, 4, 12, 15120-15133.
     DOI: 10.1021/acsomega.9b02011
   
   for metadynamics refer to:
   * S. Grimme, J. Chem. Theory Comput., 2019, 155, 2847-2862
     DOI: 10.1021/acs.jctc.9b00143
   
   for SPH calculations refer to:
   * S. Spicher and S. Grimme, J. Chem. Theory Comput., 2021, 17, 1701-1714
     DOI: 10.1021/acs.jctc.0c01306
   
   for ONIOM refer to:
   * C. Plett, A. Katbashev, S. Ehlert, S. Grimme, M. Bursch,
     Phys. Chem. Chem. Phys., 2023, 25, 17860-17868. DOI: 10.1039/D3CP02178E
   
   for DIPRO refer to:
   * J. Kohn, N. Gildemeister, S. Grimme, D. Fazzi, A. Hansen,
     J. Chem. Phys., 2023, just accepted.
   
   for PTB refer to:
   * S. Grimme, M. Mueller, A. Hansen, J. Chem. Phys., 2023, 158, 124111.
     DOI: 10.1063/5.0137838
   
   with help from (in alphabetical order)
   P. Atkinson, C. Bannwarth, F. Bohle, G. Brandenburg, E. Caldeweyher
   M. Checinski, S. Dohm, S. Ehlert, S. Ehrlich, I. Gerasimov, C. Hölzer
   A. Katbashev, J. Kohn, J. Koopman, C. Lavigne, S. Lehtola, F. März, M. Müller,
   F. Musil, H. Neugebauer, J. Pisarek, C. Plett, P. Pracht, F. Pultar,
   J. Seibert, P. Shushkov, S. Spicher, M. Stahn, M. Steiner, T. Strunk,
   J. Stückrath, T. Rose, and J. Unsleber
   
 * started run on 2026/01/25 at 20:06:36.550     
   ID    Z sym.   atoms
    1    6 C      1, 2, 5-10, 12-15, 18, 19
    2    8 O      3, 16
    3    7 N      4, 17
    4   17 Cl     11
    5    1 H      20-38

           -------------------------------------------------
          |                Calculation Setup                |
           -------------------------------------------------

          program call               : xtb /home/tuu61186/STEPs/1_xTB_structureOPT/../0_openBable_SMILES/out/xyz/STEPs_0003.xyz --gfn 2 --opt
          hostname                   : c01
          coordinate file            : /home/tuu61186/STEPs/1_xTB_structureOPT/../0_openBable_SMILES/out/xyz/STEPs_0003.xyz
          omp threads                :                     1


           -------------------------------------------------
          |                 G F N 2 - x T B                 |
           -------------------------------------------------

        Reference                      10.1021/acs.jctc.8b01176
      * Hamiltonian:
        H0-scaling (s, p, d)           1.850000    2.230000    2.230000
        zeta-weighting                 0.500000
      * Dispersion:
        s8                             2.700000
        a1                             0.520000
        a2                             5.000000
        s9                             5.000000
      * Repulsion:
        kExp                           1.500000    1.000000
        rExp                           1.000000
      * Coulomb:
        alpha                          2.000000
        third order                    shell-resolved
        anisotropic                    true
        a3                             3.000000
        a5                             4.000000
        cn-shift                       1.200000
        cn-exp                         4.000000
        max-rad                        5.000000

q/qsh data taken from xtbrestart
CAMM data taken from xtbrestart

          ...................................................
          :                      SETUP                      :
          :.................................................:
          :  # basis functions                 101          :
          :  # atomic orbitals                 100          :
          :  # shells                           58          :
          :  # electrons                       104          :
          :  max. iterations                   250          :
          :  Hamiltonian                  GFN2-xTB          :
          :  restarted?                       true          :
          :  GBSA solvation                  false          :
          :  PC potential                    false          :
          :  electronic temp.          300.0000000     K    :
          :  accuracy                    1.0000000          :
          :  -> integral cutoff          0.2500000E+02      :
          :  -> integral neglect         0.1000000E-07      :
          :  -> SCF convergence          0.1000000E-05 Eh   :
          :  -> wf. convergence          0.1000000E-03 e    :
          :  Broyden damping             0.4000000          :
          :  net charge                          0          :
          :  unpaired electrons                  0          :
          ...................................................

 iter      E             dE          RMSdq      gap      omega  full diag
   1    -58.9146325 -0.589146E+02  0.186E+00    3.82       0.0  T
   2    -58.9162163 -0.158387E-02  0.108E+00    3.76       1.0  T
   3    -58.9157602  0.456098E-03  0.170E-01    3.73       1.0  T
   4    -58.9164277 -0.667488E-03  0.454E-02    3.72       1.0  T
   5    -58.9164859 -0.581283E-04  0.221E-02    3.73       1.0  T
   6    -58.9164888 -0.291203E-05  0.869E-03    3.73       1.9  T
   7    -58.9164898 -0.102711E-05  0.295E-03    3.73       5.5  T
   8    -58.9164899 -0.784298E-07  0.152E-03    3.73      10.7  T
   9    -58.9164899 -0.162866E-07  0.682E-04    3.73      23.8  T
  10    -58.9164899 -0.562990E-08  0.423E-04    3.73      38.3  T

   *** convergence criteria satisfied after 10 iterations ***

         #    Occupation            Energy/Eh            Energy/eV
      -------------------------------------------------------------
         1        2.0000           -1.0572290             -28.7687
       ...           ...                  ...                  ...
        46        2.0000           -0.4206571             -11.4467
        47        2.0000           -0.4189422             -11.4000
        48        2.0000           -0.4096408             -11.1469
        49        2.0000           -0.3970199             -10.8035
        50        2.0000           -0.3899343             -10.6107
        51        2.0000           -0.3877640             -10.5516
        52        2.0000           -0.3816943             -10.3864 (HOMO)
        53                         -0.2447014              -6.6587 (LUMO)
        54                         -0.2431676              -6.6169
        55                         -0.2184310              -5.9438
        56                         -0.2111060              -5.7445
        57                         -0.1363044              -3.7090
       ...                                ...                  ...
       100                          0.5984911              16.2858
      -------------------------------------------------------------
                  HL-Gap            0.1369929 Eh            3.7278 eV
             Fermi-level           -0.3131979 Eh           -8.5225 eV

 SCC (total)                   0 d,  0 h,  0 min,  0.033 sec
 SCC setup                      ...        0 min,  0.000 sec (  0.497%)
 Dispersion                     ...        0 min,  0.000 sec (  0.927%)
 classical contributions        ...        0 min,  0.000 sec (  0.266%)
 integral evaluation            ...        0 min,  0.005 sec ( 13.989%)
 iterations                     ...        0 min,  0.015 sec ( 44.463%)
 molecular gradient             ...        0 min,  0.013 sec ( 39.467%)
 printout                       ...        0 min,  0.000 sec (  0.364%)

         :::::::::::::::::::::::::::::::::::::::::::::::::::::
         ::                     SUMMARY                     ::
         :::::::::::::::::::::::::::::::::::::::::::::::::::::
         :: total energy             -58.218591607418 Eh    ::
         :: gradient norm              0.081180853606 Eh/a0 ::
         :: HOMO-LUMO gap              3.727766159204 eV    ::
         ::.................................................::
         :: SCC energy               -58.916447351602 Eh    ::
         :: -> isotropic ES            0.081587208913 Eh    ::
         :: -> anisotropic ES          0.004533742290 Eh    ::
         :: -> anisotropic XC          0.023575447377 Eh    ::
         :: -> dispersion             -0.035260483004 Eh    ::
         :: repulsion energy           0.697855744184 Eh    ::
         :: add. restraining           0.000000000000 Eh    ::
         :: total charge               0.000000000000 e     ::
         :::::::::::::::::::::::::::::::::::::::::::::::::::::

      ----------------------------------------------------------- 
     |                   =====================                   |
     |                        A N C O P T                        |
     |                   =====================                   |
     |               Approximate Normal Coordinate               |
     |                Rational Function Optimizer                |
      ----------------------------------------------------------- 
      ----------------------------------------------------------- 
     |                   =====================                   |
     |                        A N C O P T                        |
     |                   =====================                   |
     |               Approximate Normal Coordinate               |
     |                Rational Function Optimizer                |
      ----------------------------------------------------------- 

          ...................................................
          :                      SETUP                      :
          :.................................................:
          :   optimization level            normal          :
          :   max. optcycles                   200          :
          :   ANC micro-cycles                  20          :
          :   degrees of freedom               108          :
          :.................................................:
          :   RF solver                   davidson          :
          :   write xtbopt.log                true          :
          :   linear?                        false          :
          :   energy convergence         0.5000000E-05 Eh   :
          :   grad. convergence          0.1000000E-02 Eh/α :
          :   maxmium RF displ.          1.0000000          :
          :   Hlow (freq-cutoff)         0.1000000E-01      :
          :   Hmax (freq-cutoff)         5.0000000          :
          :   S6 in model hess.         20.0000000          :
          ...................................................

generating ANC from exact Hessian ...
Using Lindh-Hessian (1995)
 Shifting diagonal of input Hessian by    9.7005515951857427E-003
 Lowest  eigenvalues of input Hessian
    0.000000    0.000000    0.000000    0.000000    0.000000    0.000000
    0.010000    0.010283    0.010336    0.010686    0.010943    0.011460
    0.012666    0.013434    0.014832    0.015757    0.016918    0.018572
 Highest eigenvalues
    1.713714    1.817447    1.905570    1.963508    2.135324    2.143205


........................................................................
.............................. CYCLE    1 ..............................
........................................................................

 iter      E             dE          RMSdq      gap      omega  full diag
   1    -58.9164899 -0.589165E+02  0.260E-04    3.73       0.0  T
   2    -58.9164899 -0.312319E-09  0.215E-04    3.73      75.6  T
   3    -58.9164899 -0.279670E-09  0.145E-04    3.73     111.8  T
     SCC iter.                  ...        0 min,  0.005 sec
     gradient                   ...        0 min,  0.013 sec
 * total energy  :   -58.2185916 Eh     change       -0.2274106E-08 Eh
   gradient norm :     0.0811794 Eh/α   predicted     0.0000000E+00 (-100.00%)
   displ. norm   :     0.3864197 α      lambda       -0.1427207E-01
   maximum displ.:     0.1520074 α      in ANC's #15, #24, #8, ...

........................................................................
.............................. CYCLE    2 ..............................
........................................................................

 iter      E             dE          RMSdq      gap      omega  full diag
   1    -58.9623448 -0.589623E+02  0.205E-01    3.74       0.0  T
   2    -58.9625045 -0.159772E-03  0.126E-01    3.77       1.0  T
   3    -58.9625005  0.398892E-05  0.511E-02    3.78       1.0  T
   4    -58.9625254 -0.248740E-04  0.788E-03    3.79       2.1  T
   5    -58.9625263 -0.935653E-06  0.382E-03    3.79       4.2  T
   6    -58.9625264 -0.775204E-07  0.207E-03    3.79       7.8  T
   7    -58.9625265 -0.918545E-07  0.107E-03    3.79      15.2  T
   8    -58.9625265 -0.103721E-07  0.621E-04    3.79      26.1  T
   9    -58.9625265 -0.355296E-08  0.465E-04    3.79      34.9  T
     SCC iter.                  ...        0 min,  0.012 sec
     gradient                   ...        0 min,  0.013 sec
 * total energy  :   -58.2284575 Eh     change       -0.9865848E-02 Eh
   gradient norm :     0.0270725 Eh/α   predicted    -0.8210480E-02 ( -16.78%)
   displ. norm   :     0.4354096 α      lambda       -0.4903066E-02
   maximum displ.:     0.1879206 α      in ANC's #8, #6, #15, ...

........................................................................
.............................. CYCLE    3 ..............................
........................................................................

 iter      E             dE          RMSdq      gap      omega  full diag
   1    -58.9853479 -0.589853E+02  0.131E-01    3.78       0.0  T
   2    -58.9854659 -0.117928E-03  0.826E-02    3.80       1.0  T
   3    -58.9854710 -0.515381E-05  0.395E-02    3.80       1.0  T
   4    -58.9854729 -0.186195E-05  0.870E-03    3.81       1.9  T
   5    -58.9854755 -0.263159E-05  0.279E-03    3.81       5.8  T
   6    -58.9854756 -0.118906E-06  0.167E-03    3.81       9.7  T
   7    -58.9854757 -0.265613E-07  0.956E-04    3.81      17.0  T
   8    -58.9854757 -0.874287E-08  0.672E-04    3.81      24.1  T
     SCC iter.                  ...        0 min,  0.011 sec
     gradient                   ...        0 min,  0.013 sec
 * total energy  :   -58.2316273 Eh     change       -0.3169819E-02 Eh
   gradient norm :     0.0120069 Eh/α   predicted    -0.2918459E-02 (  -7.93%)
   displ. norm   :     0.3899039 α      lambda       -0.1711754E-02
   maximum displ.:     0.2163983 α      in ANC's #8, #6, #10, ...

........................................................................
.............................. CYCLE    4 ..............................
........................................................................

 iter      E             dE          RMSdq      gap      omega  full diag
   1    -58.9902522 -0.589903E+02  0.758E-02    3.80       0.0  T
   2    -58.9902821 -0.299077E-04  0.461E-02    3.81       1.0  T
   3    -58.9902824 -0.294076E-06  0.201E-02    3.81       1.0  T
   4    -58.9902835 -0.109578E-05  0.650E-03    3.81       2.5  T
   5    -58.9902851 -0.156537E-05  0.142E-03    3.81      11.5  T
   6    -58.9902851 -0.616057E-08  0.680E-04    3.81      23.9  T
   7    -58.9902851 -0.322161E-08  0.377E-04    3.81      43.0  T
     SCC iter.                  ...        0 min,  0.009 sec
     gradient                   ...        0 min,  0.013 sec
 * total energy  :   -58.2329120 Eh     change       -0.1284759E-02 Eh
   gradient norm :     0.0085911 Eh/α   predicted    -0.9860015E-03 ( -23.25%)
   displ. norm   :     0.4699770 α      lambda       -0.1381559E-02
   maximum displ.:     0.2865118 α      in ANC's #6, #8, #10, ...

........................................................................
.............................. CYCLE    5 ..............................
........................................................................

 iter      E             dE          RMSdq      gap      omega  full diag
   1    -58.9905166 -0.589905E+02  0.968E-02    3.81       0.0  T
   2    -58.9905325 -0.158892E-04  0.564E-02    3.81       1.0  T
   3    -58.9905275  0.500304E-05  0.189E-02    3.81       1.0  T
   4    -58.9905346 -0.703665E-05  0.538E-03    3.82       3.0  T
   5    -58.9905355 -0.980965E-06  0.165E-03    3.82       9.8  T
   6    -58.9905356 -0.578062E-08  0.560E-04    3.82      29.0  T
   7    -58.9905356 -0.399103E-08  0.241E-04    3.82      67.2  T
     SCC iter.                  ...        0 min,  0.009 sec
     gradient                   ...        0 min,  0.013 sec
 * total energy  :   -58.2339258 Eh     change       -0.1013721E-02 Eh
   gradient norm :     0.0076047 Eh/α   predicted    -0.8433614E-03 ( -16.81%)
   displ. norm   :     0.3888484 α      lambda       -0.7719942E-03
   maximum displ.:     0.2565258 α      in ANC's #6, #8, #2, ...

........................................................................
.............................. CYCLE    6 ..............................
........................................................................

 iter      E             dE          RMSdq      gap      omega  full diag
   1    -58.9895503 -0.589896E+02  0.825E-02    3.82       0.0  T
   2    -58.9895542 -0.391458E-05  0.481E-02    3.82       1.0  T
   3    -58.9895509  0.327182E-05  0.115E-02    3.82       1.4  T
   4    -58.9895554 -0.451154E-05  0.300E-03    3.82       5.4  T
   5    -58.9895556 -0.148732E-06  0.153E-03    3.82      10.6  T
   6    -58.9895556 -0.171881E-07  0.552E-04    3.82      29.4  T
   7    -58.9895556 -0.296360E-08  0.356E-04    3.82      45.6  T
     SCC iter.                  ...        0 min,  0.009 sec
     gradient                   ...        0 min,  0.013 sec
 * total energy  :   -58.2344845 Eh     change       -0.5587076E-03 Eh
   gradient norm :     0.0078578 Eh/α   predicted    -0.4443726E-03 ( -20.46%)
   displ. norm   :     0.2791212 α      lambda       -0.4161960E-03
   maximum displ.:     0.1932518 α      in ANC's #6, #8, #2, ...

........................................................................
.............................. CYCLE    7 ..............................
........................................................................

 iter      E             dE          RMSdq      gap      omega  full diag
   1    -58.9902883 -0.589903E+02  0.610E-02    3.82       0.0  T
   2    -58.9902908 -0.246760E-05  0.356E-02    3.82       1.0  T
   3    -58.9902904  0.391820E-06  0.599E-03    3.82       2.7  T
   4    -58.9902912 -0.815218E-06  0.225E-03    3.82       7.2  T
   5    -58.9902913 -0.107293E-06  0.118E-03    3.82      13.7  T
   6    -58.9902914 -0.144866E-07  0.529E-04    3.82      30.7  T
   7    -58.9902914 -0.234187E-08  0.393E-04    3.82      41.2  T
     SCC iter.                  ...        0 min,  0.009 sec
     gradient                   ...        0 min,  0.013 sec
 * total energy  :   -58.2347838 Eh     change       -0.2993381E-03 Eh
   gradient norm :     0.0049907 Eh/α   predicted    -0.2243115E-03 ( -25.06%)
   displ. norm   :     0.2021596 α      lambda       -0.2134227E-03
   maximum displ.:     0.1365311 α      in ANC's #6, #2, #4, ...

........................................................................
.............................. CYCLE    8 ..............................
........................................................................

 iter      E             dE          RMSdq      gap      omega  full diag
   1    -58.9915291 -0.589915E+02  0.413E-02    3.83       0.0  T
   2    -58.9915306 -0.150673E-05  0.243E-02    3.83       1.0  T
   3    -58.9915305  0.151347E-06  0.461E-03    3.83       3.5  T
   4    -58.9915309 -0.396337E-06  0.149E-03    3.83      10.9  T
   5    -58.9915309 -0.237700E-07  0.828E-04    3.83      19.6  T
   6    -58.9915309 -0.581511E-08  0.471E-04    3.83      34.4  T
     SCC iter.                  ...        0 min,  0.008 sec
     gradient                   ...        0 min,  0.013 sec
 * total energy  :   -58.2349287 Eh     change       -0.1448951E-03 Eh
   gradient norm :     0.0026315 Eh/α   predicted    -0.1110737E-03 ( -23.34%)
   displ. norm   :     0.1365428 α      lambda       -0.8489439E-04
   maximum displ.:     0.0809131 α      in ANC's #6, #2, #4, ...

........................................................................
.............................. CYCLE    9 ..............................
........................................................................

 iter      E             dE          RMSdq      gap      omega  full diag
   1    -58.9921151 -0.589921E+02  0.264E-02    3.84       0.0  T
   2    -58.9921157 -0.618095E-06  0.156E-02    3.84       1.0  T
   3    -58.9921156  0.128390E-06  0.343E-03    3.84       4.7  T
   4    -58.9921158 -0.217771E-06  0.985E-04    3.84      16.5  T
   5    -58.9921158 -0.119708E-07  0.571E-04    3.84      28.4  T
     SCC iter.                  ...        0 min,  0.007 sec
     gradient                   ...        0 min,  0.013 sec
 * total energy  :   -58.2349871 Eh     change       -0.5844771E-04 Eh
   gradient norm :     0.0022224 Eh/α   predicted    -0.4324120E-04 ( -26.02%)
   displ. norm   :     0.1037898 α      lambda       -0.4639567E-04
   maximum displ.:     0.0468931 α      in ANC's #6, #4, #2, ...

........................................................................
.............................. CYCLE   10 ..............................
........................................................................

 iter      E             dE          RMSdq      gap      omega  full diag
   1    -58.9924513 -0.589925E+02  0.209E-02    3.84       0.0  T
   2    -58.9924518 -0.489052E-06  0.123E-02    3.84       1.3  T
   3    -58.9924517  0.838173E-07  0.296E-03    3.84       5.5  T
   4    -58.9924518 -0.140137E-06  0.813E-04    3.84      19.9  T
   5    -58.9924518 -0.108735E-07  0.464E-04    3.84      35.0  T
     SCC iter.                  ...        0 min,  0.007 sec
     gradient                   ...        0 min,  0.013 sec
 * total energy  :   -58.2350199 Eh     change       -0.3279295E-04 Eh
   gradient norm :     0.0019109 Eh/α   predicted    -0.2344891E-04 ( -28.49%)
   displ. norm   :     0.1396431 α      lambda       -0.3200408E-04
   maximum displ.:     0.0673027 α      in ANC's #4, #3, #2, ...

........................................................................
.............................. CYCLE   11 ..............................
........................................................................

 iter      E             dE          RMSdq      gap      omega  full diag
   1    -58.9922275 -0.589922E+02  0.306E-02    3.84       0.0  T
   2    -58.9922284 -0.930519E-06  0.181E-02    3.84       1.0  T
   3    -58.9922283  0.114379E-06  0.363E-03    3.84       4.5  T
   4    -58.9922285 -0.192776E-06  0.996E-04    3.84      16.3  T
   5    -58.9922285 -0.220228E-07  0.512E-04    3.84      31.7  T
     SCC iter.                  ...        0 min,  0.007 sec
     gradient                   ...        0 min,  0.013 sec
 * total energy  :   -58.2350485 Eh     change       -0.2860782E-04 Eh
   gradient norm :     0.0016239 Eh/α   predicted    -0.1614233E-04 ( -43.57%)
   displ. norm   :     0.0774076 α      lambda       -0.1727905E-04
   maximum displ.:     0.0369369 α      in ANC's #3, #4, #2, ...

........................................................................
.............................. CYCLE   12 ..............................
........................................................................

 iter      E             dE          RMSdq      gap      omega  full diag
   1    -58.9921162 -0.589921E+02  0.200E-02    3.84       0.0  T
   2    -58.9921164 -0.179240E-06  0.118E-02    3.83       1.4  T
   3    -58.9921164  0.378649E-07  0.162E-03    3.84      10.0  T
   4    -58.9921164 -0.682245E-07  0.401E-04    3.83      40.4  T
   5    -58.9921165 -0.155880E-08  0.251E-04    3.83      64.6  T
     SCC iter.                  ...        0 min,  0.007 sec
     gradient                   ...        0 min,  0.013 sec
 * total energy  :   -58.2350681 Eh     change       -0.1951113E-04 Eh
   gradient norm :     0.0014615 Eh/α   predicted    -0.8667938E-05 ( -55.57%)
   displ. norm   :     0.1465488 α      lambda       -0.2610787E-04
   maximum displ.:     0.0678645 α      in ANC's #4, #3, #2, ...

........................................................................
.............................. CYCLE   13 ..............................
........................................................................

 iter      E             dE          RMSdq      gap      omega  full diag
   1    -58.9915914 -0.589916E+02  0.368E-02    3.83       0.0  T
   2    -58.9915918 -0.373681E-06  0.216E-02    3.83       1.0  T
   3    -58.9915917  0.332834E-07  0.211E-03    3.83       7.7  T
   4    -58.9915918 -0.101318E-06  0.706E-04    3.83      23.0  T
   5    -58.9915918 -0.361129E-08  0.396E-04    3.83      41.0  T
     SCC iter.                  ...        0 min,  0.007 sec
     gradient                   ...        0 min,  0.013 sec
 * total energy  :   -58.2350903 Eh     change       -0.2225024E-04 Eh
   gradient norm :     0.0018213 Eh/α   predicted    -0.1318323E-04 ( -40.75%)
   displ. norm   :     0.1051032 α      lambda       -0.1494938E-04
   maximum displ.:     0.0483862 α      in ANC's #4, #3, #2, ...

........................................................................
.............................. CYCLE   14 ..............................
........................................................................

 iter      E             dE          RMSdq      gap      omega  full diag
   1    -58.9916755 -0.589917E+02  0.266E-02    3.83       0.0  T
   2    -58.9916757 -0.182469E-06  0.155E-02    3.83       1.0  T
   3    -58.9916757  0.528440E-08  0.154E-03    3.83      10.5  T
   4    -58.9916758 -0.534071E-07  0.628E-04    3.83      25.8  T
   5    -58.9916758 -0.225948E-08  0.339E-04    3.83      47.8  T
     SCC iter.                  ...        0 min,  0.007 sec
     gradient                   ...        0 min,  0.013 sec
 * total energy  :   -58.2351051 Eh     change       -0.1475870E-04 Eh
   gradient norm :     0.0018456 Eh/α   predicted    -0.7512142E-05 ( -49.10%)
   displ. norm   :     0.1264228 α      lambda       -0.1641482E-04
   maximum displ.:     0.0559379 α      in ANC's #4, #3, #5, ...

........................................................................
.............................. CYCLE   15 ..............................
........................................................................

 iter      E             dE          RMSdq      gap      omega  full diag
   1    -58.9921255 -0.589921E+02  0.306E-02    3.83       0.0  T
   2    -58.9921259 -0.434810E-06  0.180E-02    3.83       1.0  T
   3    -58.9921259  0.465667E-07  0.230E-03    3.83       7.1  T
   4    -58.9921260 -0.119737E-06  0.737E-04    3.83      22.0  T
   5    -58.9921260 -0.458242E-08  0.421E-04    3.83      38.5  T
     SCC iter.                  ...        0 min,  0.007 sec
     gradient                   ...        0 min,  0.013 sec
 * total energy  :   -58.2351233 Eh     change       -0.1826497E-04 Eh
   gradient norm :     0.0015851 Eh/α   predicted    -0.8267045E-05 ( -54.74%)
   displ. norm   :     0.2250302 α      lambda       -0.2790388E-04
   maximum displ.:     0.0899724 α      in ANC's #4, #5, #3, ...

........................................................................
.............................. CYCLE   16 ..............................
........................................................................

 iter      E             dE          RMSdq      gap      omega  full diag
   1    -58.9916629 -0.589917E+02  0.549E-02    3.84       0.0  T
   2    -58.9916635 -0.647156E-06  0.321E-02    3.84       1.0  T
   3    -58.9916634  0.835913E-07  0.314E-03    3.84       5.2  T
   4    -58.9916637 -0.286285E-06  0.129E-03    3.84      12.6  T
   5    -58.9916637 -0.139839E-07  0.636E-04    3.84      25.5  T
   6    -58.9916637 -0.429921E-08  0.264E-04    3.84      61.4  T
     SCC iter.                  ...        0 min,  0.008 sec
     gradient                   ...        0 min,  0.013 sec
 * total energy  :   -58.2351509 Eh     change       -0.2753986E-04 Eh
   gradient norm :     0.0023554 Eh/α   predicted    -0.1426995E-04 ( -48.18%)
   displ. norm   :     0.1111501 α      lambda       -0.2705724E-04
   maximum displ.:     0.0504352 α      in ANC's #5, #8, #14, ...

........................................................................
.............................. CYCLE   17 ..............................
........................................................................

 iter      E             dE          RMSdq      gap      omega  full diag
   1    -58.9921216 -0.589921E+02  0.257E-02    3.85       0.0  T
   2    -58.9921218 -0.192144E-06  0.151E-02    3.85       1.1  T
   3    -58.9921218  0.443629E-07  0.185E-03    3.84       8.8  T
   4    -58.9921219 -0.955322E-07  0.605E-04    3.85      26.8  T
   5    -58.9921219 -0.286599E-08  0.332E-04    3.85      48.8  T
     SCC iter.                  ...        0 min,  0.007 sec
     gradient                   ...        0 min,  0.013 sec
 * total energy  :   -58.2351727 Eh     change       -0.2186649E-04 Eh
   gradient norm :     0.0023881 Eh/α   predicted    -0.1369782E-04 ( -37.36%)
   displ. norm   :     0.2913063 α      lambda       -0.5480294E-04
   maximum displ.:     0.1324006 α      in ANC's #5, #8, #14, ...

........................................................................
.............................. CYCLE   18 ..............................
........................................................................

 iter      E             dE          RMSdq      gap      omega  full diag
   1    -58.9906913 -0.589907E+02  0.641E-02    3.85       0.0  T
   2    -58.9906926 -0.124348E-05  0.376E-02    3.85       1.0  T
   3    -58.9906925  0.116445E-06  0.407E-03    3.85       4.0  T
   4    -58.9906929 -0.395452E-06  0.164E-03    3.85       9.9  T
   5    -58.9906929 -0.340419E-07  0.856E-04    3.85      19.0  T
   6    -58.9906929 -0.408490E-08  0.285E-04    3.85      56.8  T
     SCC iter.                  ...        0 min,  0.008 sec
     gradient                   ...        0 min,  0.013 sec
 * total energy  :   -58.2351999 Eh     change       -0.2711911E-04 Eh
   gradient norm :     0.0047531 Eh/α   predicted    -0.2972994E-04 (   9.63%)
   displ. norm   :     0.0990907 α      lambda       -0.6547657E-04
   maximum displ.:     0.0505132 α      in ANC's #8, #2, #4, ...

........................................................................
.............................. CYCLE   19 ..............................
........................................................................

 iter      E             dE          RMSdq      gap      omega  full diag
   1    -58.9921506 -0.589922E+02  0.256E-02    3.86       0.0  T
   2    -58.9921513 -0.645271E-06  0.149E-02    3.86       1.1  T
   3    -58.9921512  0.114360E-06  0.346E-03    3.86       4.7  T
   4    -58.9921514 -0.198074E-06  0.135E-03    3.86      12.0  T
   5    -58.9921514 -0.317538E-07  0.745E-04    3.86      21.8  T
   6    -58.9921514 -0.351411E-08  0.489E-04    3.86      33.2  T
     SCC iter.                  ...        0 min,  0.008 sec
     gradient                   ...        0 min,  0.013 sec
 * total energy  :   -58.2352371 Eh     change       -0.3720534E-04 Eh
   gradient norm :     0.0027573 Eh/α   predicted    -0.3306275E-04 ( -11.13%)
   displ. norm   :     0.1899765 α      lambda       -0.4507439E-04
   maximum displ.:     0.0876394 α      in ANC's #5, #8, #13, ...

........................................................................
.............................. CYCLE   20 ..............................
........................................................................

 iter      E             dE          RMSdq      gap      omega  full diag
   1    -58.9913879 -0.589914E+02  0.387E-02    3.86       0.0  T
   2    -58.9913884 -0.458324E-06  0.227E-02    3.86       1.0  T
   3    -58.9913883  0.748757E-07  0.276E-03    3.86       5.9  T
   4    -58.9913885 -0.188416E-06  0.110E-03    3.86      14.7  T
   5    -58.9913885 -0.133824E-07  0.641E-04    3.86      25.3  T
   6    -58.9913885 -0.261371E-08  0.299E-04    3.86      54.2  T
     SCC iter.                  ...        0 min,  0.008 sec
     gradient                   ...        0 min,  0.013 sec
 * total energy  :   -58.2352743 Eh     change       -0.3723519E-04 Eh
   gradient norm :     0.0034235 Eh/α   predicted    -0.2335345E-04 ( -37.28%)
   displ. norm   :     0.3401496 α      lambda       -0.1200210E-03
   maximum displ.:     0.1471777 α      in ANC's #5, #13, #14, ...
 * RMSD in coord.:     0.4795471 α      energy gain  -0.1668269E-01 Eh

generating ANC from exact Hessian ...
Using Lindh-Hessian (1995)
 Shifting diagonal of input Hessian by    9.6869801979778489E-003
 Lowest  eigenvalues of input Hessian
    0.000000    0.000000    0.000000    0.000000    0.000000    0.000000
    0.010000    0.010305    0.010443    0.010849    0.011254    0.011568
    0.013186    0.013905    0.015819    0.016478    0.018027    0.019964
 Highest eigenvalues
    1.880365    1.891820    1.981153    2.046653    2.295323    2.311122


........................................................................
.............................. CYCLE   21 ..............................
........................................................................

 iter      E             dE          RMSdq      gap      omega  full diag
   1    -58.9895529 -0.589896E+02  0.638E-02    3.86       0.0  T
   2    -58.9895546 -0.168797E-05  0.375E-02    3.86       1.0  T
   3    -58.9895545  0.130505E-06  0.439E-03    3.86       3.7  T
   4    -58.9895549 -0.415681E-06  0.174E-03    3.86       9.3  T
   5    -58.9895550 -0.406800E-07  0.943E-04    3.86      17.2  T
   6    -58.9895550 -0.590330E-08  0.321E-04    3.86      50.5  T
     SCC iter.                  ...        0 min,  0.008 sec
     gradient                   ...        0 min,  0.013 sec
 * total energy  :   -58.2353277 Eh     change       -0.5340031E-04 Eh
   gradient norm :     0.0078935 Eh/α   predicted     0.0000000E+00 (-100.00%)
   displ. norm   :     0.0470530 α      lambda       -0.1461801E-03
   maximum displ.:     0.0226917 α      in ANC's #13, #6, #7, ...

........................................................................
.............................. CYCLE   22 ..............................
........................................................................

 iter      E             dE          RMSdq      gap      omega  full diag
   1    -58.9916393 -0.589916E+02  0.191E-02    3.86       0.0  T
   2    -58.9916402 -0.872514E-06  0.108E-02    3.86       1.5  T
   3    -58.9916402 -0.306951E-07  0.302E-03    3.86       5.4  T
   4    -58.9916403 -0.354056E-07  0.719E-04    3.86      22.6  T
   5    -58.9916403 -0.394506E-08  0.396E-04    3.86      41.0  T
     SCC iter.                  ...        0 min,  0.007 sec
     gradient                   ...        0 min,  0.013 sec
 * total energy  :   -58.2354273 Eh     change       -0.9960716E-04 Eh
   gradient norm :     0.0026184 Eh/α   predicted    -0.7371781E-04 ( -25.99%)
   displ. norm   :     0.0679550 α      lambda       -0.5910790E-04
   maximum displ.:     0.0373935 α      in ANC's #13, #7, #6, ...

........................................................................
.............................. CYCLE   23 ..............................
........................................................................

 iter      E             dE          RMSdq      gap      omega  full diag
   1    -58.9926527 -0.589927E+02  0.166E-02    3.86       0.0  T
   2    -58.9926530 -0.352969E-06  0.962E-03    3.86       1.7  T
   3    -58.9926530  0.165721E-07  0.212E-03    3.86       7.7  T
   4    -58.9926531 -0.499250E-07  0.677E-04    3.86      24.0  T
   5    -58.9926531 -0.736514E-08  0.360E-04    3.86      45.1  T
     SCC iter.                  ...        0 min,  0.007 sec
     gradient                   ...        0 min,  0.013 sec
 * total energy  :   -58.2354701 Eh     change       -0.4278528E-04 Eh
   gradient norm :     0.0015301 Eh/α   predicted    -0.2970234E-04 ( -30.58%)
   displ. norm   :     0.1796191 α      lambda       -0.6175625E-04
   maximum displ.:     0.1066798 α      in ANC's #13, #6, #2, ...

........................................................................
.............................. CYCLE   24 ..............................
........................................................................

 iter      E             dE          RMSdq      gap      omega  full diag
   1    -58.9930702 -0.589931E+02  0.389E-02    3.86       0.0  T
   2    -58.9930709 -0.689789E-06  0.229E-02    3.86       1.0  T
   3    -58.9930706  0.238888E-06  0.392E-03    3.86       4.1  T
   4    -58.9930710 -0.367915E-06  0.136E-03    3.86      11.9  T
   5    -58.9930710 -0.291555E-07  0.752E-04    3.86      21.6  T
   6    -58.9930710 -0.411217E-08  0.432E-04    3.86      37.5  T
     SCC iter.                  ...        0 min,  0.008 sec
     gradient                   ...        0 min,  0.013 sec
 * total energy  :   -58.2355382 Eh     change       -0.6813109E-04 Eh
   gradient norm :     0.0039605 Eh/α   predicted    -0.3132456E-04 ( -54.02%)
   displ. norm   :     0.2304496 α      lambda       -0.1013709E-03
   maximum displ.:     0.1467102 α      in ANC's #13, #6, #2, ...

........................................................................
.............................. CYCLE   25 ..............................
........................................................................

 iter      E             dE          RMSdq      gap      omega  full diag
   1    -58.9920754 -0.589921E+02  0.471E-02    3.86       0.0  T
   2    -58.9920760 -0.665249E-06  0.278E-02    3.85       1.0  T
   3    -58.9920757  0.316780E-06  0.402E-03    3.85       4.0  T
   4    -58.9920762 -0.467836E-06  0.151E-03    3.85      10.8  T
   5    -58.9920762 -0.362811E-07  0.812E-04    3.85      20.0  T
   6    -58.9920762 -0.383475E-08  0.439E-04    3.85      37.0  T
     SCC iter.                  ...        0 min,  0.008 sec
     gradient                   ...        0 min,  0.013 sec
 * total energy  :   -58.2356200 Eh     change       -0.8180959E-04 Eh
   gradient norm :     0.0042492 Eh/α   predicted    -0.5337943E-04 ( -34.75%)
   displ. norm   :     0.3310742 α      lambda       -0.1162720E-03
   maximum displ.:     0.2142057 α      in ANC's #13, #2, #6, ...

........................................................................
.............................. CYCLE   26 ..............................
........................................................................

 iter      E             dE          RMSdq      gap      omega  full diag
   1    -58.9894478 -0.589894E+02  0.674E-02    3.85       0.0  T
   2    -58.9894500 -0.220906E-05  0.397E-02    3.85       1.0  T
   3    -58.9894495  0.468374E-06  0.558E-03    3.85       2.9  T
   4    -58.9894502 -0.720987E-06  0.233E-03    3.85       7.0  T
   5    -58.9894504 -0.124202E-06  0.114E-03    3.85      14.3  T
   6    -58.9894504 -0.652754E-08  0.511E-04    3.85      31.8  T
   7    -58.9894504 -0.233631E-08  0.386E-04    3.85      42.0  T
     SCC iter.                  ...        0 min,  0.009 sec
     gradient                   ...        0 min,  0.013 sec
 * total energy  :   -58.2356396 Eh     change       -0.1952966E-04 Eh
   gradient norm :     0.0083139 Eh/α   predicted    -0.6450893E-04 ( 230.31%)
   displ. norm   :     0.1217461 α      lambda       -0.1246514E-03
   maximum displ.:     0.0783767 α      in ANC's #13, #6, #2, ...

........................................................................
.............................. CYCLE   27 ..............................
........................................................................

 iter      E             dE          RMSdq      gap      omega  full diag
   1    -58.9917394 -0.589917E+02  0.289E-02    3.85       0.0  T
   2    -58.9917406 -0.119372E-05  0.167E-02    3.85       1.0  T
   3    -58.9917405  0.921235E-07  0.393E-03    3.85       4.1  T
   4    -58.9917406 -0.164535E-06  0.153E-03    3.85      10.6  T
   5    -58.9917407 -0.578167E-07  0.621E-04    3.85      26.1  T
   6    -58.9917407 -0.183523E-08  0.280E-04    3.85      57.9  T
     SCC iter.                  ...        0 min,  0.008 sec
     gradient                   ...        0 min,  0.013 sec
 * total energy  :   -58.2357069 Eh     change       -0.6731745E-04 Eh
   gradient norm :     0.0032111 Eh/α   predicted    -0.6325148E-04 (  -6.04%)
   displ. norm   :     0.0744718 α      lambda       -0.5052883E-04
   maximum displ.:     0.0393343 α      in ANC's #13, #5, #2, ...

........................................................................
.............................. CYCLE   28 ..............................
........................................................................

 iter      E             dE          RMSdq      gap      omega  full diag
   1    -58.9922121 -0.589922E+02  0.158E-02    3.85       0.0  T
   2    -58.9922125 -0.359204E-06  0.918E-03    3.86       1.8  T
   3    -58.9922125  0.243338E-07  0.238E-03    3.86       6.8  T
   4    -58.9922125 -0.536484E-07  0.737E-04    3.86      22.0  T
   5    -58.9922125 -0.945928E-08  0.401E-04    3.86      40.5  T
     SCC iter.                  ...        0 min,  0.007 sec
     gradient                   ...        0 min,  0.013 sec
 * total energy  :   -58.2357499 Eh     change       -0.4303317E-04 Eh
   gradient norm :     0.0021181 Eh/α   predicted    -0.2542684E-04 ( -40.91%)
   displ. norm   :     0.2771413 α      lambda       -0.1320987E-03
   maximum displ.:     0.1589953 α      in ANC's #13, #5, #2, ...

........................................................................
.............................. CYCLE   29 ..............................
........................................................................

 iter      E             dE          RMSdq      gap      omega  full diag
   1    -58.9915788 -0.589916E+02  0.542E-02    3.86       0.0  T
   2    -58.9915813 -0.243367E-05  0.319E-02    3.86       1.0  T
   3    -58.9915809  0.356985E-06  0.623E-03    3.86       2.6  T
   4    -58.9915815 -0.605286E-06  0.187E-03    3.86       8.7  T
   5    -58.9915816 -0.572414E-07  0.101E-03    3.86      16.1  T
   6    -58.9915816 -0.682313E-08  0.600E-04    3.86      27.0  T
   7    -58.9915816 -0.326323E-08  0.433E-04    3.86      37.5  T
     SCC iter.                  ...        0 min,  0.009 sec
     gradient                   ...        0 min,  0.013 sec
 * total energy  :   -58.2358343 Eh     change       -0.8442946E-04 Eh
   gradient norm :     0.0050719 Eh/α   predicted    -0.7112306E-04 ( -15.76%)
   displ. norm   :     0.1120896 α      lambda       -0.4997421E-04
   maximum displ.:     0.0592113 α      in ANC's #5, #13, #2, ...

........................................................................
.............................. CYCLE   30 ..............................
........................................................................

 iter      E             dE          RMSdq      gap      omega  full diag
   1    -58.9915288 -0.589915E+02  0.227E-02    3.87       0.0  T
   2    -58.9915291 -0.291746E-06  0.134E-02    3.87       1.2  T
   3    -58.9915289  0.135612E-06  0.290E-03    3.87       5.6  T
   4    -58.9915291 -0.198684E-06  0.945E-04    3.87      17.2  T
   5    -58.9915291 -0.120168E-07  0.585E-04    3.87      27.7  T
     SCC iter.                  ...        0 min,  0.007 sec
     gradient                   ...        0 min,  0.013 sec
 * total energy  :   -58.2358752 Eh     change       -0.4087614E-04 Eh
   gradient norm :     0.0049670 Eh/α   predicted    -0.2530127E-04 ( -38.10%)
   displ. norm   :     0.2094274 α      lambda       -0.1107531E-03
   maximum displ.:     0.1099911 α      in ANC's #5, #13, #10, ...

........................................................................
.............................. CYCLE   31 ..............................
........................................................................

 iter      E             dE          RMSdq      gap      omega  full diag
   1    -58.9915481 -0.589915E+02  0.441E-02    3.88       0.0  T
   2    -58.9915487 -0.624489E-06  0.260E-02    3.88       1.0  T
   3    -58.9915484  0.360459E-06  0.438E-03    3.87       3.7  T
   4    -58.9915489 -0.561721E-06  0.136E-03    3.87      11.9  T
   5    -58.9915490 -0.154711E-07  0.845E-04    3.87      19.2  T
   6    -58.9915490 -0.578567E-08  0.511E-04    3.87      31.7  T
     SCC iter.                  ...        0 min,  0.008 sec
     gradient                   ...        0 min,  0.013 sec
 * total energy  :   -58.2359571 Eh     change       -0.8185664E-04 Eh
   gradient norm :     0.0035230 Eh/α   predicted    -0.5780801E-04 ( -29.38%)
   displ. norm   :     0.2819394 α      lambda       -0.9822463E-04
   maximum displ.:     0.1436138 α      in ANC's #13, #5, #8, ...

........................................................................
.............................. CYCLE   32 ..............................
........................................................................

 iter      E             dE          RMSdq      gap      omega  full diag
   1    -58.9898525 -0.589899E+02  0.557E-02    3.88       0.0  T
   2    -58.9898538 -0.127152E-05  0.328E-02    3.88       1.0  T
   3    -58.9898535  0.273228E-06  0.418E-03    3.88       3.9  T
   4    -58.9898540 -0.480273E-06  0.152E-03    3.88      10.7  T
   5    -58.9898541 -0.469198E-07  0.758E-04    3.88      21.4  T
   6    -58.9898541 -0.311081E-08  0.306E-04    3.88      53.0  T
     SCC iter.                  ...        0 min,  0.008 sec
     gradient                   ...        0 min,  0.013 sec
 * total energy  :   -58.2360025 Eh     change       -0.4543640E-04 Eh
   gradient norm :     0.0060016 Eh/α   predicted    -0.5301710E-04 (  16.68%)
   displ. norm   :     0.1832006 α      lambda       -0.1876316E-03
   maximum displ.:     0.0731717 α      in ANC's #5, #6, #3, ...

........................................................................
.............................. CYCLE   33 ..............................
........................................................................

 iter      E             dE          RMSdq      gap      omega  full diag
   1    -58.9927201 -0.589927E+02  0.573E-02    3.88       0.0  T
   2    -58.9927234 -0.337547E-05  0.332E-02    3.88       1.0  T
   3    -58.9927233  0.128857E-06  0.575E-03    3.88       2.8  T
   4    -58.9927238 -0.489047E-06  0.187E-03    3.88       8.7  T
   5    -58.9927239 -0.592120E-07  0.100E-03    3.88      16.2  T
   6    -58.9927239 -0.640156E-08  0.429E-04    3.88      37.8  T
   7    -58.9927239 -0.221471E-08  0.206E-04    3.88      78.7  T
     SCC iter.                  ...        0 min,  0.009 sec
     gradient                   ...        0 min,  0.013 sec
 * total energy  :   -58.2360322 Eh     change       -0.2974033E-04 Eh
   gradient norm :     0.0059161 Eh/α   predicted    -0.9698777E-04 ( 226.12%)
   displ. norm   :     0.0824202 α      lambda       -0.9017391E-04
   maximum displ.:     0.0506483 α      in ANC's #13, #5, #6, ...

........................................................................
.............................. CYCLE   34 ..............................
........................................................................

 iter      E             dE          RMSdq      gap      omega  full diag
   1    -58.9916399 -0.589916E+02  0.202E-02    3.88       0.0  T
   2    -58.9916406 -0.792998E-06  0.116E-02    3.88       1.4  T
   3    -58.9916406  0.317744E-07  0.316E-03    3.88       5.1  T
   4    -58.9916407 -0.922610E-07  0.988E-04    3.88      16.4  T
   5    -58.9916407 -0.198851E-07  0.506E-04    3.88      32.1  T
     SCC iter.                  ...        0 min,  0.007 sec
     gradient                   ...        0 min,  0.013 sec
 * total energy  :   -58.2360869 Eh     change       -0.5464604E-04 Eh
   gradient norm :     0.0030426 Eh/α   predicted    -0.4539381E-04 ( -16.93%)
   displ. norm   :     0.0502113 α      lambda       -0.3351368E-04
   maximum displ.:     0.0248706 α      in ANC's #7, #6, #3, ...

........................................................................
.............................. CYCLE   35 ..............................
........................................................................

 iter      E             dE          RMSdq      gap      omega  full diag
   1    -58.9921681 -0.589922E+02  0.142E-02    3.87       0.0  T
   2    -58.9921683 -0.231235E-06  0.836E-03    3.87       1.9  T
   3    -58.9921682  0.710273E-07  0.236E-03    3.87       6.9  T
   4    -58.9921683 -0.112827E-06  0.741E-04    3.87      21.9  T
   5    -58.9921683 -0.834210E-08  0.463E-04    3.87      35.1  T
     SCC iter.                  ...        0 min,  0.007 sec
     gradient                   ...        0 min,  0.013 sec
 * total energy  :   -58.2361122 Eh     change       -0.2532468E-04 Eh
   gradient norm :     0.0020783 Eh/α   predicted    -0.1680064E-04 ( -33.66%)
   displ. norm   :     0.1614251 α      lambda       -0.5214255E-04
   maximum displ.:     0.0730391 α      in ANC's #5, #3, #13, ...

........................................................................
.............................. CYCLE   36 ..............................
........................................................................

 iter      E             dE          RMSdq      gap      omega  full diag
   1    -58.9921308 -0.589921E+02  0.305E-02    3.87       0.0  T
   2    -58.9921315 -0.691595E-06  0.180E-02    3.87       1.0  T
   3    -58.9921312  0.303510E-06  0.427E-03    3.87       3.8  T
   4    -58.9921316 -0.411575E-06  0.127E-03    3.87      12.8  T
   5    -58.9921316 -0.311237E-07  0.742E-04    3.87      21.9  T
   6    -58.9921316 -0.451151E-08  0.471E-04    3.87      34.5  T
     SCC iter.                  ...        0 min,  0.008 sec
     gradient                   ...        0 min,  0.013 sec
 * total energy  :   -58.2361476 Eh     change       -0.3539602E-04 Eh
   gradient norm :     0.0033729 Eh/α   predicted    -0.2675101E-04 ( -24.42%)
   displ. norm   :     0.1335284 α      lambda       -0.4722593E-04
   maximum displ.:     0.0608578 α      in ANC's #3, #4, #14, ...

........................................................................
.............................. CYCLE   37 ..............................
........................................................................

 iter      E             dE          RMSdq      gap      omega  full diag
   1    -58.9929522 -0.589930E+02  0.292E-02    3.87       0.0  T
   2    -58.9929527 -0.453993E-06  0.171E-02    3.87       1.0  T
   3    -58.9929526  0.872213E-07  0.284E-03    3.87       5.7  T
   4    -58.9929527 -0.149234E-06  0.960E-04    3.87      16.9  T
   5    -58.9929528 -0.144255E-07  0.561E-04    3.87      28.9  T
     SCC iter.                  ...        0 min,  0.007 sec
     gradient                   ...        0 min,  0.013 sec
 * total energy  :   -58.2361796 Eh     change       -0.3196678E-04 Eh
   gradient norm :     0.0031627 Eh/α   predicted    -0.2403436E-04 ( -24.81%)
   displ. norm   :     0.2445444 α      lambda       -0.5135860E-04
   maximum displ.:     0.1191863 α      in ANC's #5, #3, #14, ...

........................................................................
.............................. CYCLE   38 ..............................
........................................................................

 iter      E             dE          RMSdq      gap      omega  full diag
   1    -58.9918437 -0.589918E+02  0.490E-02    3.87       0.0  T
   2    -58.9918445 -0.874098E-06  0.288E-02    3.87       1.0  T
   3    -58.9918444  0.145714E-06  0.336E-03    3.87       4.8  T
   4    -58.9918447 -0.280848E-06  0.106E-03    3.87      15.4  T
   5    -58.9918447 -0.168175E-07  0.585E-04    3.87      27.7  T
   6    -58.9918447 -0.305973E-08  0.243E-04    3.87      66.7  T
     SCC iter.                  ...        0 min,  0.008 sec
     gradient                   ...        0 min,  0.013 sec
 * total energy  :   -58.2362119 Eh     change       -0.3231568E-04 Eh
   gradient norm :     0.0036750 Eh/α   predicted    -0.2721544E-04 ( -15.78%)
   displ. norm   :     0.1552025 α      lambda       -0.5374444E-04
   maximum displ.:     0.0789376 α      in ANC's #4, #3, #5, ...

........................................................................
.............................. CYCLE   39 ..............................
........................................................................

 iter      E             dE          RMSdq      gap      omega  full diag
   1    -58.9922770 -0.589923E+02  0.359E-02    3.88       0.0  T
   2    -58.9922774 -0.464661E-06  0.211E-02    3.87       1.0  T
   3    -58.9922771  0.293884E-06  0.368E-03    3.87       4.4  T
   4    -58.9922775 -0.393240E-06  0.111E-03    3.87      14.6  T
   5    -58.9922776 -0.207039E-07  0.558E-04    3.87      29.1  T
   6    -58.9922776 -0.173907E-08  0.307E-04    3.87      52.8  T
     SCC iter.                  ...        0 min,  0.008 sec
     gradient                   ...        0 min,  0.013 sec
 * total energy  :   -58.2362449 Eh     change       -0.3296131E-04 Eh
   gradient norm :     0.0016893 Eh/α   predicted    -0.2752175E-04 ( -16.50%)
   displ. norm   :     0.2162992 α      lambda       -0.1899565E-04
   maximum displ.:     0.1076988 α      in ANC's #5, #4, #3, ...

........................................................................
.............................. CYCLE   40 ..............................
........................................................................

 iter      E             dE          RMSdq      gap      omega  full diag
   1    -58.9915516 -0.589916E+02  0.457E-02    3.88       0.0  T
   2    -58.9915524 -0.732581E-06  0.269E-02    3.88       1.0  T
   3    -58.9915519  0.440940E-06  0.467E-03    3.88       3.5  T
   4    -58.9915525 -0.608256E-06  0.141E-03    3.88      11.5  T
   5    -58.9915526 -0.280328E-07  0.803E-04    3.88      20.2  T
   6    -58.9915526 -0.420697E-08  0.491E-04    3.88      33.0  T
     SCC iter.                  ...        0 min,  0.008 sec
     gradient                   ...        0 min,  0.013 sec
 * total energy  :   -58.2362560 Eh     change       -0.1115766E-04 Eh
   gradient norm :     0.0022516 Eh/α   predicted    -0.9699326E-05 ( -13.07%)
   displ. norm   :     0.0350780 α      lambda       -0.1474419E-04
   maximum displ.:     0.0167108 α      in ANC's #13, #9, #14, ...

........................................................................
.............................. CYCLE   41 ..............................
........................................................................

 iter      E             dE          RMSdq      gap      omega  full diag
   1    -58.9929223 -0.589929E+02  0.994E-03    3.88       0.0  T
   2    -58.9929225 -0.217136E-06  0.578E-03    3.88       2.8  T
   3    -58.9929225  0.324547E-07  0.199E-03    3.88       8.2  T
   4    -58.9929226 -0.592407E-07  0.750E-04    3.88      21.6  T
   5    -58.9929226 -0.867411E-08  0.445E-04    3.88      36.5  T
     SCC iter.                  ...        0 min,  0.007 sec
     gradient                   ...        0 min,  0.013 sec
 * total energy  :   -58.2362621 Eh     change       -0.6100740E-05 Eh
   gradient norm :     0.0013162 Eh/α   predicted    -0.7381500E-05 (  20.99%)
   displ. norm   :     0.0363408 α      lambda       -0.4431292E-05
   maximum displ.:     0.0170218 α      in ANC's #5, #4, #3, ...

........................................................................
.............................. CYCLE   42 ..............................
........................................................................

 iter      E             dE          RMSdq      gap      omega  full diag
   1    -58.9926629 -0.589927E+02  0.866E-03    3.88       0.0  T
   2    -58.9926630 -0.787590E-07  0.507E-03    3.88       3.2  T
   3    -58.9926630  0.508029E-07  0.155E-03    3.88      10.5  T
   4    -58.9926630 -0.645907E-07  0.353E-04    3.88      46.0  T
   5    -58.9926630 -0.348972E-08  0.129E-04    3.88     126.1  T
     SCC iter.                  ...        0 min,  0.007 sec
     gradient                   ...        0 min,  0.013 sec
 * total energy  :   -58.2362663 Eh     change       -0.4135183E-05 Eh
   gradient norm :     0.0004067 Eh/α   predicted    -0.2221491E-05 ( -46.28%)
   displ. norm   :     0.0489054 α      lambda       -0.2499499E-05
   maximum displ.:     0.0274659 α      in ANC's #5, #4, #3, ...

   *** GEOMETRY OPTIMIZATION CONVERGED AFTER 42 ITERATIONS ***

------------------------------------------------------------------------
 total energy gain   :        -0.0176746 Eh      -11.0910 kcal/mol
 total RMSD          :         0.7365919 a0        0.3898 Å
 total power (kW/mol):        -1.1048757 (step)  -42.1565 (real)
------------------------------------------------------------------------

 ANCopt (total)                0 d,  0 h,  0 min,  1.101 sec
 optimizer setup                ...        0 min,  0.000 sec (  0.014%)
 model hessian                  ...        0 min,  0.018 sec (  1.634%)
 ANC generation                 ...        0 min,  0.002 sec (  0.179%)
 coordinate transformation      ...        0 min,  0.000 sec (  0.023%)
 single point calculation       ...        0 min,  1.073 sec ( 97.454%)
 optimization log               ...        0 min,  0.004 sec (  0.342%)
 hessian update                 ...        0 min,  0.000 sec (  0.037%)
 rational function              ...        0 min,  0.002 sec (  0.221%)

================
 final structure:
================
38
 xtb: 6.7.1 (edcfbbe)
C            1.56438537319306        0.30261658854826       -0.25569528554720
C            3.03012066680817        0.10475212223322        0.05244543362727
O            3.89916824216081        0.40170570989980       -0.74654435823811
N            3.34203510460211       -0.46732439739341        1.24686022702843
C            2.38542801936231       -0.84886411697709        2.25938876857752
C            1.95450590091224        0.30264499935387        3.18883134772979
C            1.20529296292222       -0.24901773256505        4.36383787137912
C            1.88408214654750       -0.64299119140393        5.51095930709151
C            1.20993770567791       -1.19059913986588        6.58682147244672
C           -0.16429052766116       -1.35053561166299        6.51471323124657
Cl          -1.01777420913720       -2.03506198629338        7.85568313097926
C           -0.86286112349862       -0.96598146959193        5.38243779311631
C           -0.17273111801404       -0.42032715064985        4.31501842571766
C            4.75269893416210       -0.65777065410040        1.50775220728636
C            5.40444346593801        0.56469037310013        2.16208413145058
O            4.75171071589739        1.43281793622057        2.71019861301569
N            6.75341647192683        0.59591752550899        2.11476523185447
C            7.56293910914384       -0.39338628080138        1.44256688970085
C            7.44886674998987        1.75285061357693        2.63487403618092
H            1.48758525351303        0.75841664507250       -1.23912750706099
H            1.09718171462142        0.95560600255641        0.47517621745270
H            1.04174476607801       -0.65167864405602       -0.26698686353969
H            2.84587719426448       -1.62994608647962        2.87220339713314
H            1.50229259154166       -1.28355706288078        1.78365245975275
H            1.32598773419330        1.00423976172695        2.64092197732850
H            2.84873223311293        0.83447574658933        3.51306537045301
H            2.95449254239641       -0.50918898284392        5.56592816290434
H            1.74212574015693       -1.48938094786363        7.47640110043127
H           -1.93347008808954       -1.09162218575416        5.33931007017166
H           -0.71857778020636       -0.11705357595144        3.43338090879613
H            5.22874631538789       -0.83687437154725        0.53978834494754
H            4.89116447508748       -1.52982374594739        2.15347212022641
H            7.28865547244102       -1.40244260950857        1.75183999643549
H            8.60480586381064       -0.22690172065023        1.70970663813572
H            7.46849057465219       -0.31811516363607        0.35542084986434
H            6.70943487140943        2.42306889535228        3.06851623304027
H            7.97913526212530        2.27183674374169        1.83382910724392
H            8.16222067257045        1.45200516494705        3.40490294164073

 Bond Distances (Angstroems)
 ---------------------------
C1-C2=1.5108         C1-H20=1.0866        C1-H21=1.0857        C1-H22=1.0881        C2-C1=1.5108         C2-O3=1.2173         
C2-N4=1.3606         O3-C2=1.2173         N4-C2=1.3606         N4-C5=1.4443         N4-C14=1.4472        C5-N4=1.4443         
C5-C6=1.5413         C5-H23=1.0944        C5-H24=1.0933        C6-C5=1.5413         C6-C7=1.4988         C6-H25=1.0897        
C6-H26=1.0898        C7-C6=1.4988         C7-C8=1.3899         C7-C13=1.3895        C8-C7=1.3899         C8-C9=1.3827         
C8-H27=1.0801        C9-C8=1.3827         C9-C10=1.3854        C9-H28=1.0788        C10-C9=1.3854        C10-Cl11=1.7307      
C10-C12=1.3849       Cl11-C10=1.7307      C12-C10=1.3849       C12-C13=1.3833       C12-H29=1.0788       C13-C7=1.3895        
C13-C12=1.3833       C13-H30=1.0804       C14-N4=1.4472        C14-C15=1.5321       C14-H31=1.0935       C14-H32=1.0939       
C15-C14=1.5321       C15-O16=1.2166       C15-N17=1.3502       O16-C15=1.2166       N17-C15=1.3502       N17-C18=1.4443       
N17-C19=1.4466       C18-N17=1.4443       C18-H33=1.0904       C18-H34=1.0884       C18-H35=1.0938       C19-N17=1.4466       
C19-H36=1.0881       C19-H37=1.0919       C19-H38=1.0919       H20-C1=1.0866        H21-C1=1.0857        H22-C1=1.0881        
H23-C5=1.0944        H24-C5=1.0933        H25-C6=1.0897        H26-C6=1.0898        H27-C8=1.0801        H28-C9=1.0788        
H29-C12=1.0788       H30-C13=1.0804       H31-C14=1.0935       H32-C14=1.0939       H33-C18=1.0904       H34-C18=1.0884       
H35-C18=1.0938       H36-C19=1.0881       H37-C19=1.0919       H38-C19=1.0919       
 C  H  Rav=1.0883 sigma=0.0051  Rmin=1.0788  Rmax=1.0944    19
 C  C  Rav=1.4399 sigma=0.0669  Rmin=1.3827  Rmax=1.5413    10
 N  C  Rav=1.4155 sigma=0.0426  Rmin=1.3502  Rmax=1.4472     6
 O  C  Rav=1.2170 sigma=0.0003  Rmin=1.2166  Rmax=1.2173     2
 Cl C  Rav=1.7307 sigma=0.0000  Rmin=1.7307  Rmax=1.7307     1

 selected bond angles (degree)
 --------------------
H20-C1-C2=107.94               H21-C1-C2=111.04               H21-C1-H20=109.06              H22-C1-C2=110.69               
H22-C1-H20=108.94              H22-C1-H21=109.13              O3-C2-C1=121.79                N4-C2-C1=117.16                
N4-C2-O3=121.00                C5-N4-C2=125.08                C14-N4-C2=115.92               C14-N4-C5=118.98               
C6-C5-N4=114.24                H23-C5-N4=107.60               H23-C5-C6=108.25               H24-C5-N4=109.57               
H24-C5-C6=109.49               H24-C5-H23=107.44              C7-C6-C5=109.73                H25-C6-C5=109.82               
H25-C6-C7=110.05               H26-C6-C5=108.34               H26-C6-C7=110.89               H26-C6-H25=107.98              
C8-C7-C6=120.48                C13-C7-C6=120.90               C13-C7-C8=118.58               C9-C8-C7=121.09                
H27-C8-C7=119.40               H27-C8-C9=119.51               C10-C9-C8=119.27               H28-C9-C8=120.72               
H28-C9-C10=120.02              Cl11-C10-C9=119.64             C12-C10-C9=120.72              C12-C10-Cl11=119.64            

 selected dihedral angles (degree)
 ---------------------------------
O3-C2-C1-H20=358.10           O3-C2-C1-H21=238.61           O3-C2-C1-H22=117.24           N4-C2-C1-H20=180.44           
N4-C2-C1-H21= 60.95           N4-C2-C1-H22=299.57           C5-N4-C2-C1=357.41            C5-N4-C2-O3=179.72            
C14-N4-C2-C1=179.33           C14-N4-C2-O3=  1.65           C6-C5-N4-C2=276.53            C6-C5-N4-C14= 94.55           
H23-C5-N4-C2=156.31           H23-C5-N4-C14=334.33          H24-C5-N4-C2= 39.78           H24-C5-N4-C14=217.81          
C7-C6-C5-N4=192.06            C7-C6-C5-H23=311.91           C7-C6-C5-H24= 68.75           H25-C6-C5-N4= 70.96           
H25-C6-C5-H23=190.82          H25-C6-C5-H24=307.66          H26-C6-C5-N4=313.25           H26-C6-C5-H23= 73.10          
H26-C6-C5-H24=189.94          C8-C7-C6-C5= 88.46            C8-C7-C6-H25=209.41           C8-C7-C6-H26=328.82           
C13-C7-C6-C5=270.67           C13-C7-C6-H25= 31.62          C13-C7-C6-H26=151.02          C9-C8-C7-C6=181.95            
C9-C8-C7-C13=359.80           H27-C8-C7-C6=  2.60           H27-C8-C7-C13=180.44          C10-C9-C8-C7=  0.16           
C10-C9-C8-H27=179.51          H28-C9-C8-C7=180.34           H28-C9-C8-H27=359.69          Cl11-C10-C9-C8=179.99         
Cl11-C10-C9-H28=359.82        C12-C10-C9-C8=359.85          C12-C10-C9-H28=179.68         
           -------------------------------------------------
          |                Final Singlepoint                |
           -------------------------------------------------

          ...................................................
          :                      SETUP                      :
          :.................................................:
          :  # basis functions                 101          :
          :  # atomic orbitals                 100          :
          :  # shells                           58          :
          :  # electrons                       104          :
          :  max. iterations                   250          :
          :  Hamiltonian                  GFN2-xTB          :
          :  restarted?                      false          :
          :  GBSA solvation                  false          :
          :  PC potential                    false          :
          :  electronic temp.          300.0000000     K    :
          :  accuracy                    1.0000000          :
          :  -> integral cutoff          0.2500000E+02      :
          :  -> integral neglect         0.1000000E-07      :
          :  -> SCF convergence          0.1000000E-05 Eh   :
          :  -> wf. convergence          0.1000000E-03 e    :
          :  Broyden damping             0.4000000          :
          :  net charge                          0          :
          :  unpaired electrons                  0          :
          ...................................................

 iter      E             dE          RMSdq      gap      omega  full diag
   1    -58.9926630 -0.589927E+02  0.564E-05    3.88       0.0  T
   2    -58.9926630 -0.145519E-10  0.391E-05    3.88     414.8  T
   3    -58.9926630 -0.306244E-11  0.282E-05    3.88     574.7  T

   *** convergence criteria satisfied after 3 iterations ***

         #    Occupation            Energy/Eh            Energy/eV
      -------------------------------------------------------------
         1        2.0000           -1.0534076             -28.6647
       ...           ...                  ...                  ...
        46        2.0000           -0.4187142             -11.3938
        47        2.0000           -0.4151186             -11.2960
        48        2.0000           -0.4102733             -11.1641
        49        2.0000           -0.3958956             -10.7729
        50        2.0000           -0.3926843             -10.6855
        51        2.0000           -0.3886981             -10.5770
        52        2.0000           -0.3795113             -10.3270 (HOMO)
        53                         -0.2370172              -6.4496 (LUMO)
        54                         -0.2362139              -6.4277
        55                         -0.2098298              -5.7098
        56                         -0.2010590              -5.4711
        57                         -0.1346649              -3.6644
       ...                                ...                  ...
       100                          0.6403173              17.4239
      -------------------------------------------------------------
                  HL-Gap            0.1424941 Eh            3.8775 eV
             Fermi-level           -0.3082643 Eh           -8.3883 eV

 SCC (total)                   0 d,  0 h,  0 min,  0.022 sec
 SCC setup                      ...        0 min,  0.000 sec (  0.561%)
 Dispersion                     ...        0 min,  0.000 sec (  0.774%)
 classical contributions        ...        0 min,  0.000 sec (  0.371%)
 integral evaluation            ...        0 min,  0.004 sec ( 20.209%)
 iterations                     ...        0 min,  0.004 sec ( 18.515%)
 molecular gradient             ...        0 min,  0.013 sec ( 59.105%)
 printout                       ...        0 min,  0.000 sec (  0.421%)

         :::::::::::::::::::::::::::::::::::::::::::::::::::::
         ::                     SUMMARY                     ::
         :::::::::::::::::::::::::::::::::::::::::::::::::::::
         :: total energy             -58.236266254012 Eh    ::
         :: gradient norm              0.000406273065 Eh/a0 ::
         :: HOMO-LUMO gap              3.877462002555 eV    ::
         ::.................................................::
         :: SCC energy               -58.992596061930 Eh    ::
         :: -> isotropic ES            0.082215174227 Eh    ::
         :: -> anisotropic ES          0.001797695671 Eh    ::
         :: -> anisotropic XC          0.022109422826 Eh    ::
         :: -> dispersion             -0.036877357495 Eh    ::
         :: repulsion energy           0.756329807918 Eh    ::
         :: add. restraining           0.000000000000 Eh    ::
         :: total charge              -0.000000000000 e     ::
         :::::::::::::::::::::::::::::::::::::::::::::::::::::

           -------------------------------------------------
          |                Property Printout                |
           -------------------------------------------------

    * Orbital Energies and Occupations

         #    Occupation            Energy/Eh            Energy/eV
      -------------------------------------------------------------
         1        2.0000           -1.0534076             -28.6647
       ...           ...                  ...                  ...
        40        2.0000           -0.4683779             -12.7452
        41        2.0000           -0.4653496             -12.6628
        42        2.0000           -0.4501091             -12.2481
        43        2.0000           -0.4442681             -12.0891
        44        2.0000           -0.4406181             -11.9898
        45        2.0000           -0.4344551             -11.8221
        46        2.0000           -0.4187142             -11.3938
        47        2.0000           -0.4151186             -11.2960
        48        2.0000           -0.4102733             -11.1641
        49        2.0000           -0.3958956             -10.7729
        50        2.0000           -0.3926843             -10.6855
        51        2.0000           -0.3886981             -10.5770
        52        2.0000           -0.3795113             -10.3270 (HOMO)
        53                         -0.2370172              -6.4496 (LUMO)
        54                         -0.2362139              -6.4277
        55                         -0.2098298              -5.7098
        56                         -0.2010590              -5.4711
        57                         -0.1346649              -3.6644
        58                         -0.1110278              -3.0212
        59                         -0.0257034              -0.6994
        60                          0.0046696               0.1271
        61                          0.0183258               0.4987
        62                          0.0232563               0.6328
        63                          0.0233545               0.6355
       ...                                ...                  ...
       100                          0.6403173              17.4239
      -------------------------------------------------------------
                  HL-Gap            0.1424941 Eh            3.8775 eV
             Fermi-level           -0.3082643 Eh           -8.3883 eV

     #   Z          covCN         q      C6AA      α(0)
     1   6 C        3.754    -0.137    23.185     6.866
     2   6 C        2.768     0.272    22.405     7.752
     3   8 O        0.859    -0.450    22.703     6.388
     4   7 N        2.733    -0.092    23.037     7.129
     5   6 C        3.743     0.003    20.596     6.474
     6   6 C        3.807    -0.080    22.024     6.681
     7   6 C        2.970     0.012    27.740     8.639
     8   6 C        2.928    -0.037    28.916     8.819
     9   6 C        2.952    -0.040    29.005     8.833
    10   6 C        2.890     0.096    25.874     8.340
    11  17 Cl       0.965    -0.187   105.026    15.679
    12   6 C        2.952    -0.041    29.009     8.834
    13   6 C        2.928    -0.037    28.929     8.821
    14   6 C        3.760    -0.024    21.043     6.540
    15   6 C        2.762     0.264    22.549     7.776
    16   8 O        0.859    -0.444    22.570     6.370
    17   7 N        2.731    -0.087    22.936     7.113
    18   6 C        3.695    -0.056    21.755     6.673
    19   6 C        3.703    -0.051    21.651     6.653
    20   1 H        0.925     0.070     2.088     2.259
    21   1 H        0.925     0.060     2.204     2.321
    22   1 H        0.925     0.052     2.291     2.367
    23   1 H        0.924     0.045     2.382     2.414
    24   1 H        0.924     0.047     2.356     2.401
    25   1 H        0.925     0.046     2.368     2.406
    26   1 H        0.925     0.089     1.885     2.147
    27   1 H        0.926     0.048     2.345     2.395
    28   1 H        0.926     0.054     2.267     2.354
    29   1 H        0.926     0.054     2.266     2.354
    30   1 H        0.926     0.043     2.407     2.426
    31   1 H        0.924     0.085     1.928     2.171
    32   1 H        0.924     0.050     2.325     2.384
    33   1 H        0.924     0.052     2.289     2.366
    34   1 H        0.925     0.067     2.116     2.275
    35   1 H        0.924     0.059     2.206     2.323
    36   1 H        0.925     0.090     1.882     2.145
    37   1 H        0.924     0.053     2.282     2.363
    38   1 H        0.924     0.049     2.336     2.390

 Mol. C6AA /au·bohr⁶  :      16058.532762
 Mol. C8AA /au·bohr⁸  :     389379.504971
 Mol. α(0) /au        :        194.640280


Wiberg/Mayer (AO) data.
largest (>0.10) Wiberg bond orders for each atom

 ---------------------------------------------------------------------------
     #   Z sym  total        # sym  WBO       # sym  WBO       # sym  WBO
 ---------------------------------------------------------------------------
     1   6 C    3.994 --     2 C    0.987    20 H    0.983    21 H    0.967
                            22 H    0.967
     2   6 C    3.949 --     3 O    1.675     4 N    1.227     1 C    0.987
     3   8 O    1.988 --     2 C    1.675     4 N    0.186
     4   7 N    3.489 --     2 C    1.227    14 C    0.998     5 C    0.996
                             3 O    0.186
     5   6 C    3.972 --     4 N    0.996     6 C    0.971    23 H    0.970
                            24 H    0.966
     6   6 C    3.988 --     7 C    1.014     5 C    0.971    25 H    0.969
                            26 H    0.956
     7   6 C    3.988 --    13 C    1.408     8 C    1.405     6 C    1.014
     8   6 C    3.990 --     9 C    1.448     7 C    1.405    27 H    0.967
                            12 C    0.108
     9   6 C    3.989 --     8 C    1.448    10 C    1.402    28 H    0.968
                            13 C    0.108
    10   6 C    3.913 --    12 C    1.405     9 C    1.402    11 Cl   0.967
    11  17 Cl   1.098 --    10 C    0.967
    12   6 C    3.989 --    13 C    1.444    10 C    1.405    29 H    0.968
                             8 C    0.108
    13   6 C    3.990 --    12 C    1.444     7 C    1.408    30 H    0.968
                             9 C    0.108
    14   6 C    3.976 --     4 N    0.998    32 H    0.953    31 H    0.949
                            15 C    0.947
    15   6 C    3.956 --    16 O    1.661    17 N    1.261    14 C    0.947
    16   8 O    2.003 --    15 C    1.661    17 N    0.197
    17   7 N    3.499 --    15 C    1.261    18 C    1.003    19 C    0.995
                            16 O    0.197
    18   6 C    3.972 --    17 N    1.003    34 H    0.981    33 H    0.978
                            35 H    0.971
    19   6 C    3.963 --    17 N    0.995    38 H    0.978    37 H    0.977
                            36 H    0.973
    20   1 H    0.995 --     1 C    0.983
    21   1 H    0.996 --     1 C    0.967
    22   1 H    0.997 --     1 C    0.967
    23   1 H    0.998 --     5 C    0.970
    24   1 H    0.998 --     5 C    0.966
    25   1 H    0.997 --     6 C    0.969
    26   1 H    0.992 --     6 C    0.956
    27   1 H    0.998 --     8 C    0.967
    28   1 H    0.997 --     9 C    0.968
    29   1 H    0.997 --    12 C    0.968
    30   1 H    0.998 --    13 C    0.968
    31   1 H    0.992 --    14 C    0.949
    32   1 H    0.997 --    14 C    0.953
    33   1 H    0.997 --    18 C    0.978
    34   1 H    0.995 --    18 C    0.981
    35   1 H    0.996 --    18 C    0.971
    36   1 H    0.992 --    19 C    0.973
    37   1 H    0.997 --    19 C    0.977
    38   1 H    0.998 --    19 C    0.978
 ---------------------------------------------------------------------------

Topologies differ in total number of bonds
Writing topology from bond orders to xtbtopo.mol

molecular dipole:
                 x           y           z       tot (Debye)
 q only:        1.290      -0.655      -0.143
   full:        1.125      -0.989       0.012       3.809
molecular quadrupole (traceless):
                xx          xy          yy          xz          yz          zz
 q only:       39.466     -13.172      -5.775      25.076       5.407     -33.690
  q+dip:       39.918     -15.518      -9.747      25.021      -0.645     -30.171
   full:       38.161     -15.720      -7.581      23.939       0.664     -30.581

           -------------------------------------------------
          |                Geometry Summary                 |
           -------------------------------------------------

      molecular mass/u    :      282.7663307
   center of mass at/Å    :        2.6935660      -0.3067448       3.3677007
  moments of inertia/u·Å² :        0.8315829E+03   0.3719284E+04   0.4302262E+04
rotational constants/cm⁻¹ :        0.2027174E-01   0.4532494E-02   0.3918319E-02

 * 34 selected distances

     #   Z          #   Z                                           value/Å
     2   6 C        3   8 O                                       1.2172962
     2   6 C        4   7 N                                       1.3605841
     4   7 N        5   6 C                                       1.4442590
     7   6 C        8   6 C                                       1.3899129
     8   6 C        9   6 C                                       1.3826876
     9   6 C       10   6 C                                       1.3853818
    10   6 C       11  17 Cl                                      1.7306680 (max)
    10   6 C       12   6 C                                       1.3848938
     7   6 C       13   6 C                                       1.3894895
    12   6 C       13   6 C                                       1.3832579
     4   7 N       14   6 C                                       1.4471721
    15   6 C       16   8 O                                       1.2166081
    15   6 C       17   7 N                                       1.3501640
    17   7 N       18   6 C                                       1.4442645
    17   7 N       19   6 C                                       1.4466025
     1   6 C       20   1 H                                       1.0866421
     1   6 C       21   1 H                                       1.0857476
     1   6 C       22   1 H                                       1.0880994
     5   6 C       23   1 H                                       1.0943694
     5   6 C       24   1 H                                       1.0932572
     6   6 C       25   1 H                                       1.0897134
     6   6 C       26   1 H                                       1.0897764
     8   6 C       27   1 H                                       1.0801404
     9   6 C       28   1 H                                       1.0788173 (min)
    12   6 C       29   1 H                                       1.0788185
    13   6 C       30   1 H                                       1.0803742
    14   6 C       31   1 H                                       1.0934594
    14   6 C       32   1 H                                       1.0938938
    18   6 C       33   1 H                                       1.0904477
Note: The following floating-point exceptions are signalling: IEEE_UNDERFLOW_FLAG IEEE_DENORMAL
normal termination of xtb
    18   6 C       34   1 H                                       1.0883783
    18   6 C       35   1 H                                       1.0938341
    19   6 C       36   1 H                                       1.0881166
    19   6 C       37   1 H                                       1.0918812
    19   6 C       38   1 H                                       1.0919371

 * 5 distinct bonds (by element types)

   Z      Z             #   av. dist./Å        max./Å        min./Å
   1 H    6 C          19     1.0883002     1.0943694     1.0788173
   6 C    6 C           6     1.3859372     1.3899129     1.3826876
   6 C    7 N           6     1.4155077     1.4471721     1.3501640
   6 C    8 O           2     1.2169522     1.2172962     1.2166081
   6 C   17 Cl          1     1.7306680     1.7306680     1.7306680


optimized geometry written to: xtbopt.xyz


           -------------------------------------------------
          | TOTAL ENERGY              -58.236266254012 Eh   |
          | GRADIENT NORM               0.000406273065 Eh/α |
          | HOMO-LUMO GAP               3.877462002555 eV   |
           -------------------------------------------------

------------------------------------------------------------------------
 * finished run on 2026/01/25 at 20:06:37.729     
------------------------------------------------------------------------
 total:
 * wall-time:     0 d,  0 h,  0 min,  1.179 sec
 *  cpu-time:     0 d,  0 h,  0 min,  1.161 sec
 * ratio c/w:     0.985 speedup
 SCF:
 * wall-time:     0 d,  0 h,  0 min,  0.033 sec
 *  cpu-time:     0 d,  0 h,  0 min,  0.033 sec
 * ratio c/w:     0.995 speedup
 ANC optimizer:
 * wall-time:     0 d,  0 h,  0 min,  1.129 sec
 *  cpu-time:     0 d,  0 h,  0 min,  1.120 sec
 * ratio c/w:     0.992 speedup

