38
 energy: -58.218591609693 gnorm: 0.081179555838 xtb: 6.7.1 (edcfbbe)
C            1.35680000000000        0.17800000000000       -0.37700000000000
C            2.83560000000000        0.09380000000000       -0.07310000000000
O            3.63180000000000        0.36470000000000       -0.97780000000000
N            3.27780000000000       -0.31100000000000        1.18470000000000
C            2.42830000000000       -0.77560000000000        2.30340000000000
C            2.02350000000000        0.27330000000000        3.35050000000000
C            1.20500000000000       -0.34280000000000        4.47530000000000
C            1.83900000000000       -0.85920000000000        5.61820000000000
C            1.08440000000000       -1.38470000000000        6.67090000000000
C           -0.30550000000000       -1.40640000000000        6.58300000000000
Cl          -1.23430000000000       -2.03050000000000        7.89110000000000
C           -0.95020000000000       -0.92120000000000        5.44680000000000
C           -0.19680000000000       -0.39580000000000        4.39330000000000
C            4.74800000000000       -0.43570000000000        1.34340000000000
C            5.51240000000000        0.80310000000000        1.84390000000000
O            4.90810000000000        1.82990000000000        2.15960000000000
N            6.90560000000000        0.69330000000000        2.00540000000000
C            7.69890000000000       -0.49490000000000        1.68540000000000
C            7.65150000000000        1.83370000000000        2.50390000000000
H            1.24040000000000        0.51580000000000       -1.41540000000000
H            0.86610000000000        0.91450000000000        0.26150000000000
H            0.87390000000000       -0.79980000000000       -0.30840000000000
H            2.97600000000000       -1.57800000000000        2.81430000000000
H            1.52500000000000       -1.23530000000000        1.89180000000000
H            1.43710000000000        1.07580000000000        2.88940000000000
H            2.90860000000000        0.74830000000000        3.78990000000000
H            2.92320000000000       -0.83920000000000        5.70230000000000
H            1.58600000000000       -1.76030000000000        7.55800000000000
H           -2.03390000000000       -0.93960000000000        5.37890000000000
H           -0.71080000000000       -0.01020000000000        3.51570000000000
H            5.17100000000000       -0.70390000000000        0.36950000000000
H            4.94190000000000       -1.27020000000000        2.02630000000000
H            7.10280000000000       -1.31630000000000        1.31270000000000
H            8.20960000000000       -0.81280000000000        2.60420000000000
H            8.45030000000000       -0.21910000000000        0.93650000000000
H            7.01380000000000        2.69790000000000        2.70880000000000
H            8.40110000000000        2.12510000000000        1.76070000000000
H            8.15600000000000        1.54450000000000        3.43080000000000
38
 energy: -58.228457457499 gnorm: 0.027072905145 xtb: 6.7.1 (edcfbbe)
C            1.37938781000159        0.17636386660092       -0.33819381714896
C            2.86304457385236        0.10114220170178       -0.04387133972038
O            3.66634056579984        0.35123964875928       -0.92686764124570
N            3.29438505691814       -0.29622878747243        1.20012179741369
C            2.43697839146291       -0.76873987308618        2.28995725259147
C            2.03012402924138        0.27660579377658        3.34175858059339
C            1.21371320459149       -0.34328995582073        4.46013924395029
C            1.83411578757523       -0.85300716778186        5.60023876935512
C            1.09083326461605       -1.37656348697186        6.64875506651099
C           -0.29229347370642       -1.40077312524228        6.56319766456282
Cl          -1.22282025439810       -2.02739634258912        7.87328449995899
C           -0.93113965922038       -0.91654126230525        5.43219548822288
C           -0.17801644307889       -0.39449997785400        4.39003888809993
C            4.74590937931082       -0.44520875670660        1.35181216908924
C            5.48809278683239        0.79437428293493        1.87223654635034
O            4.90462571879214        1.81704597863015        2.17531127154401
N            6.85599045607462        0.68594240947569        2.00418368234918
C            7.66958426535845       -0.47631081405044        1.68911599122432
C            7.62595935885624        1.81264128061146        2.49242158662175
H            1.27099817822400        0.51083854979365       -1.37284805635913
H            0.87808410679901        0.89633864978383        0.30413284244128
H            0.89561232407030       -0.79607992368139       -0.25444366905176
H            2.97876270246490       -1.57289340301480        2.80181202488217
H            1.53131756175987       -1.21075689701709        1.86404719617296
H            1.44642536229142        1.06934520040163        2.86874522686105
H            2.92524696139354        0.73952275944909        3.76428034008413
H            2.91181354832215       -0.82849599158700        5.68568891163721
H            1.58611107805111       -1.75408147831373        7.53290367705602
H           -2.01041022358041       -0.93717594306709        5.36865754703991
H           -0.68962946887347       -0.00883099563189        3.51893682145244
H            5.14595586910476       -0.69023645569376        0.36035670738710
H            4.93336439691270       -1.28118027682681        2.03328447390492
H            7.07777407337330       -1.29914916498266        1.31254047282436
H            8.19565907754766       -0.80435452174419        2.59308208693262
H            8.42152281728027       -0.21012409947074        0.93995665759945
H            6.96863422390989        2.65710699415312        2.68939641642417
H            8.37484024615278        2.11306015032516        1.75299054183966
H            8.14110234591632        1.53955093451480        3.41904408054811
38
 energy: -58.231627276981 gnorm: 0.012007601247 xtb: 6.7.1 (edcfbbe)
C            1.40177311428908        0.17936447861554       -0.29017935034126
C            2.88912404094594        0.09541293644080       -0.01843820006224
O            3.69538551871922        0.34973015961343       -0.88993564994283
N            3.30854556719551       -0.29999321473867        1.21771625832840
C            2.44286090741613       -0.77466344925757        2.28154691216257
C            2.04353611224983        0.28421908522415        3.32671941933318
C            1.22957051578217       -0.32761554445020        4.44197808342389
C            1.84396352134641       -0.83953472595001        5.57876293943469
C            1.10679983905437       -1.36925803442395        6.62235939102564
C           -0.27433474038230       -1.39584075589518        6.53583449192949
Cl          -1.20709978721806       -2.02767435730368        7.84672110211221
C           -0.91137452846428       -0.90945096390578        5.40741821551582
C           -0.15758181062954       -0.38355763776163        4.37366250952406
C            4.74447899628570       -0.46237215445420        1.36987732196190
C            5.46572800830518        0.78638163110826        1.89190520969895
O            4.87858656083543        1.79588110185693        2.20983047190218
N            6.81417570262536        0.67753839371961        2.00504514799690
C            7.63419515358478       -0.46775457224288        1.68849342813281
C            7.58887694523642        1.80046325083701        2.48793806413528
H            1.28711572455261        0.51989226514005       -1.31770388068261
H            0.90599302550880        0.88348270151843        0.37175125426781
H            0.92418342230619       -0.79367558246351       -0.19652233212565
H            2.96881687468374       -1.58487321669502        2.79868981027935
H            1.53422646133211       -1.19688404268311        1.84321434995350
H            1.46349638392706        1.06983916630604        2.84222945650152
H            2.94676345366257        0.73880127229877        3.73497747903050
H            2.91938331987489       -0.81316029714322        5.66396934676173
H            1.59692689343544       -1.74890122644064        7.50536396323829
H           -1.98830499396111       -0.93251270881206        5.34695869866078
H           -0.66786917497551        0.00234010451137        3.50463665335064
H            5.13384972051355       -0.68021424614775        0.36725792257375
H            4.93571808251644       -1.30250629587347        2.04320228711148
H            7.04935161422601       -1.29514422667724        1.30528508781157
H            8.16903024145006       -0.79952625430244        2.58493297754717
H            8.38175286114770       -0.19516779727908        0.93815405175332
H            6.91675644701933        2.63277993339368        2.67919710130892
H            8.33184420854797        2.09980946602038        1.74412107034979
H            8.11175579705470        1.53354535829724        3.41142893603668
38
 energy: -58.232912036305 gnorm: 0.008591895911 xtb: 6.7.1 (edcfbbe)
C            1.41333981132314        0.18707171977138       -0.25447015681189
C            2.90218409396561        0.09580340927440       -0.00235284197091
O            3.70825673047983        0.34875424922013       -0.87563796609634
N            3.31378794339817       -0.31975270289938        1.22644088606613
C            2.44153845012799       -0.78618403721375        2.27888561614274
C            2.05861715568213        0.29214530110173        3.31186601022650
C            1.24604081695386       -0.30713084919687        4.42771660885242
C            1.86100458899785       -0.82385615175051        5.56149154785795
C            1.12467264272076       -1.36168351095174        6.60062616497922
C           -0.25667159797616       -1.39091989480241        6.51030121080525
Cl          -1.19085154263052       -2.03443313595623        7.81715527109757
C           -0.89461292684967       -0.90051276584653        5.38367303670869
C           -0.14036732888204       -0.36688911273064        4.35495967307905
C            4.74191289500696       -0.48760310999615        1.38629618138504
C            5.44443024859046        0.76345179120196        1.92817062278899
O            4.84092376975351        1.76356002607172        2.25209088705573
N            6.79030728417123        0.66937091218584        2.01555296833699
C            7.61298255805777       -0.46562125724636        1.68510487597020
C            7.55702671842181        1.80103482695777        2.48828734322676
H            1.28226834020559        0.54020859298391       -1.27404327547179
H            0.93302669577378        0.88005537542157        0.43093914518368
H            0.94125899905950       -0.78864062040107       -0.15926878509396
H            2.95143360189374       -1.60186881432963        2.80346648233813
H            1.52792131350904       -1.19434905516294        1.83998018369789
H            1.48502211484207        1.07499831923727        2.81629342357071
H            2.96995088918049        0.74188315704538        3.70614304472215
H            2.93676563603347       -0.79491185152680        5.64565560138276
H            1.61269933505679       -1.74721100268598        7.48164687883074
H           -1.97088378109645       -0.92894280953267        5.32183785853727
H           -0.64884618043399        0.02048682566766        3.48508560387458
H            5.13934675779563       -0.68596529398664        0.38296411994792
H            4.93369783079003       -1.33241732698811        2.05209011157255
H            7.03295836104991       -1.29657051717003        1.29995890471999
H            8.15536544957480       -0.79936265377884        2.57588582370660
H            8.35123921056457       -0.18204430395152        0.92943558241585
H            6.87280804517674        2.62360518991003        2.68035453506706
H            8.28921594282498        2.10308989020450        1.73579545117065
H            8.08822912688648        1.54055119185029        3.40802137012741
38
 energy: -58.233925756961 gnorm: 0.007605584775 xtb: 6.7.1 (edcfbbe)
C            1.41947274096916        0.20119455662804       -0.21993461638922
C            2.90927662282898        0.08481241834042        0.00829754713750
O            3.71401948622277        0.34943422238836       -0.86471885950432
N            3.31521289695567       -0.36148520248324        1.22814337469222
C            2.43699403337498       -0.80280866835799        2.28008160862182
C            2.07712969551434        0.30156569564210        3.29516052875529
C            1.26553391397885       -0.27907614888158        4.41494750709750
C            1.88331371133758       -0.80186504531813        5.54482527487454
C            1.14598724321178       -1.35132954870502        6.57751994437348
C           -0.23558948237605       -1.38498931067514        6.48067957453723
Cl          -1.17114926999216       -2.04656005791231        7.77945447617908
C           -0.87517791831775       -0.88818839158835        5.35694892336777
C           -0.12060629650520       -0.34314489100524        4.33403172884801
C            4.73853720643056       -0.52486310845888        1.40107931556997
C            5.42276272753028        0.73011546095742        1.95942461351952
O            4.79316563251077        1.70808873964663        2.31330351465160
N            6.77018222541371        0.66120723250355        2.02738464784873
C            7.59930036922684       -0.46339762730210        1.68100927760265
C            7.51905870505889        1.80695159625562        2.49487713416029
H            1.26667093637059        0.58196977157329       -1.22646029272962
H            0.96339022247665        0.87982086246255        0.49826922671393
H            0.94638579680610       -0.77516827088098       -0.13768999009914
H            2.93035165941808       -1.62126821842575        2.81613290159574
H            1.51638972874287       -1.20092831407588        1.84991146218935
H            1.51295825135077        1.08303173933916        2.78645579819148
H            2.99819466514195        0.74683399179337        3.67161900896527
H            2.95993643210269       -0.76942494994983        5.62687668122162
H            1.63278268814957       -1.74503780898489        7.45575226077607
H           -1.95115299480681       -0.92356173000995        5.29125506422837
H           -0.62552492315125        0.04762811552183        3.46255878908714
H            5.14931879816323       -0.70458517116366        0.40047557538684
H            4.93135428762093       -1.37625061836115        2.05784363715997
H            7.02533323372997       -1.29748879489729        1.29340186223097
H            8.15033026251768       -0.80028430587821        2.56516011274937
H            8.32607859882458       -0.16435966480074        0.92008121276208
H            6.81975348345953        2.61721719838045        2.68842990086507
H            8.23845447752088        2.11797486039089        1.73426927532595
H            8.05957015218778        1.55741938629386        3.41154199743642
38
 energy: -58.234484464537 gnorm: 0.007858469163 xtb: 6.7.1 (edcfbbe)
C            1.41875927558061        0.21613144930928       -0.19859196914602
C            2.90891080522743        0.08030143371952        0.01398240898889
O            3.71220596651799        0.34898511208812       -0.85975620948614
N            3.31367989863906       -0.40278386869001        1.22195259537597
C            2.43292146214826       -0.81629880891654        2.28273588399001
C            2.09243257139369        0.30810095161336        3.28275996095677
C            1.28086802793050       -0.25742138016791        4.40722088592529
C            1.90098251730384       -0.78309539918712        5.53481153033957
C            1.16215455789273       -1.34134667243058        6.56220680917253
C           -0.21914843652963       -1.37968383284580        6.45935283306457
Cl          -1.15542080109279       -2.05918830368563        7.74898317860584
C           -0.85984905506286       -0.87664669401461        5.33872582605145
C           -0.10510126555267       -0.32265526204761        4.32029690587177
C            4.73610497799687       -0.56121996443015        1.40529787568309
C            5.40730394278300        0.69223958530412        1.98622919640699
O            4.76043927762379        1.65244491532091        2.36142108132629
N            6.75759807280426        0.65212723071204        2.03895882065590
C            7.59937426233164       -0.46023324508197        1.67801657659440
C            7.48562832191208        1.81335106135790        2.50319185047281
H            1.25348181151464        0.62521470304172       -1.19248611597928
H            0.98097917203415        0.88230049948900        0.54215558800788
H            0.93810183705956       -0.75845349492889       -0.13599980679331
H            2.91597170247290       -1.63409756677022        2.82924394689949
H            1.50569163519973       -1.21019400519915        1.86354217029008
H            1.53577021108769        1.08991063582267        2.76616002866707
H            3.01999850839670        0.74934293267014        3.64696687926234
H            2.97797513832227       -0.74652499851381        5.61558537523254
H            1.64862790329055       -1.74104136981719        7.43823625190029
H           -1.93565870146934       -0.91707830817585        5.26892946171135
H           -0.60632542859047        0.07234084502528        3.44806232648666
H            5.15928978493623       -0.73057910496633        0.40890584948353
H            4.92569720830203       -1.41904738010122        2.05514097623979
H            7.03223501863101       -1.29827390220145        1.28983953641016
H            8.15925792985211       -0.79666023492012        2.55660663462055
H            8.31622090283913       -0.14611128830198        0.91368893216339
H            6.77180657491506        2.61074858195109        2.70047615643344
H            8.19406059029545        2.13805675739174        1.73784416692479
H            8.03497382106255        1.57623839057891        3.41770560119003
38
 energy: -58.234783802595 gnorm: 0.004991249169 xtb: 6.7.1 (edcfbbe)
C            1.41651929560825        0.23002164213094       -0.18727581373609
C            2.90637792646875        0.07386860802635        0.01590870693694
O            3.70888729502947        0.34833932222895       -0.85617018882483
N            3.31202102364580       -0.43490215911654        1.21371037604794
C            2.43137780401744       -0.82439330442497        2.28588433174972
C            2.10201457722881        0.31150497679397        3.27513602424161
C            1.29005609363783       -0.24458837006194        4.40354847571871
C            1.91113273191289       -0.76946023636397        5.53084436812157
C            1.17161142425577       -1.33283385769418        6.55492576160104
C           -0.20903553405624       -1.37603885230429        6.44788365809712
Cl          -1.14505841970187       -2.07061120822091        7.72935534400324
C           -0.85022623265700       -0.86794604099186        5.33005043136888
C           -0.09561425563473       -0.30865035187618        4.31455319832096
C            4.73550391956519       -0.58971745542335        1.40152101373919
C            5.39947584954243        0.66288375731152        1.99273431187280
O            4.74490865364334        1.61029438230473        2.38486414707708
N            6.75000400692324        0.64345104714448        2.04388013818178
C            7.60743822166259       -0.45626200848679        1.67607974087452
C            7.45806768780176        1.81562386072808        2.51215279135935
H            1.25029927411822        0.66241705856088       -1.17108868721738
H            0.98920011857626        0.88591978173012        0.56673325200635
H            0.92445350494922       -0.74031602546076       -0.14454437558959
H            2.91109712831420       -1.63853830561422        2.84016309913385
H            1.50009490433624       -1.21858569378637        1.87462149171683
H            1.54961942274734        1.09399251595154        2.75521832449116
H            3.03224319814420        0.74927077501930        3.63445776565225
H            2.98790769843900       -0.72909480195979        5.61158290646171
H            1.65829839054032       -1.73497746631257        7.42978070085943
H           -1.92581744903979       -0.91057206672585        5.25765336575008
H           -0.59434548341983        0.09008989831071        3.44273183544120
H            5.16347230120755       -0.75650022024239        0.40779108990648
H            4.92227052563899       -1.45176631889600        2.04754609496041
H            7.04832082069520       -1.29901300626794        1.28712873253434
H            8.17441778544980       -0.78877378944842        2.55140541577775
H            8.31780672747544       -0.12912305009966        0.91158353125591
H            6.73139395175061        2.60077818277778        2.71269154674559
H            8.15986999443431        2.15537499599063        1.74719770817685
H            8.01193511674873        1.58803378477097        3.42615938518625
38
 energy: -58.234928697668 gnorm: 0.002631625498 xtb: 6.7.1 (edcfbbe)
C            1.41631178433840        0.24190092346272       -0.18205930482541
C            2.90511899140534        0.07173995580978        0.01807473308977
O            3.70766367377475        0.34572136679775       -0.85337772703702
N            3.31121699149654       -0.45488372714371        1.20761073716781
C            2.43171730169406       -0.82936591701577        2.28821403081358
C            2.10711694889393        0.31227591777209        3.27053418106142
C            1.29418879376651       -0.23815874241097        4.40204057447198
C            1.91511540025522       -0.76015645365009        5.53048113522687
C            1.17577968334969       -1.32582381832547        6.55318306449102
C           -0.20424591773844       -1.37362809801136        6.44393063363153
Cl          -1.13917908178411       -2.07961308216378        7.71910106430440
C           -0.84559591487229       -0.86190824402302        5.32817886080206
C           -0.09131684908302       -0.30021734082200        4.31408379801814
C            4.73633395156347       -0.61094828446576        1.39403639946090
C            5.39485182050925        0.64108882326620        1.99070465096287
O            4.73676469424791        1.58154414021057        2.38998419580545
N            6.74535756531348        0.63574969088193        2.04392199271395
C            7.61820159287685       -0.45125530940982        1.67282980485453
C            7.43678992982738        1.81435475677387        2.52006733435304
H            1.25634674430565        0.68992149492458       -1.15934447402331
H            0.99307988061578        0.89000646871584        0.57901874076880
H            0.91371221263563       -0.72361832670617       -0.15397983195637
H            2.91181146384967       -1.63965474738836        2.84724791947013
H            1.49864917307322       -1.22503728444939        1.88053164437049
H            1.55668547163023        1.09541421002311        2.74982075753285
H            3.03793548442946        0.74763191676173        3.62970370170684
H            2.99142164762701       -0.71673084286921        5.61231618627918
H            1.66290829698904       -1.72734995674062        7.42797480487932
H           -1.92102606210919       -0.90458427431951        5.25502415906102
H           -0.58928197846830        0.10100912177630        3.44336639164994
H            5.16392362268815       -0.77845291863857        0.40055670221328
H            4.92134032484339       -1.47510585489230        2.03836720122096
H            7.06771313191707       -1.29976070250371        1.28399854889238
H            8.19134257439799       -0.77724112480244        2.54655463814969
H            8.32368877088997       -0.11355349557060        0.90873803714651
H            6.69881277511537        2.58765146240606        2.72494646931217
H            8.13443061817222        2.16952036513960        1.75827921045886
H            7.99231448756243        1.59071793160278        3.43373903350155
38
 energy: -58.234987145381 gnorm: 0.002222455435 xtb: 6.7.1 (edcfbbe)
C            1.41906495755904        0.25081282977632       -0.17942092231023
C            2.90679897465809        0.06884067173069        0.01963835669820
O            3.70981855959507        0.34369310501741       -0.85103728300423
N            3.31185631027679       -0.46588885845941        1.20482758028833
C            2.43297753023350       -0.83362144588164        2.28902455852463
C            2.10883664133532        0.31075619326359        3.26765655225876
C            1.29498289007318       -0.23604334482151        4.40125032546015
C            1.91536871632525       -0.75473281618812        5.53132935422694
C            1.17666253785911       -1.32030574061558        6.55427950936644
C           -0.20306793563318       -1.37123192374023        6.44448739941687
Cl          -1.13672919538429       -2.08325937454528        7.71633824521103
C           -0.84445364706874       -0.85812340644434        5.32955576818502
C           -0.09052633380617       -0.29656012680738        4.31538406189570
C            4.73798628998791       -0.62418256174221        1.38813134717942
C            5.39216497753408        0.62881527145429        1.98498040252702
O            4.73036588294683        1.56554057382537        2.38646432895266
N            6.74244917752059        0.63103114459078        2.04116168654465
C            7.62552145333516       -0.44624270155318        1.66801491069501
C            7.42305475936881        1.81177153405520        2.52636491227055
H            1.26508997980995        0.70959816246303       -1.15269387112964
H            0.99762160850554        0.89323098057589        0.58767632867972
H            0.90947638624598       -0.71106161053178       -0.16123779120812
H            2.91417830043415       -1.64118821452432        2.85073461581567
H            1.49977641817798       -1.23076851868044        1.88212147348923
H            1.55916916106649        1.09380710376761        2.74610233131905
H            3.03955886299456        0.74553510649129        3.62772465714419
H            2.99132565289369       -0.70949282213574        5.61450883781544
H            1.66417119708785       -1.71990279433601        7.42965449427436
H           -1.91985008588653       -0.90009289827216        5.25689593417098
H           -0.58909793261204        0.10544708649640        3.44562082684402
H            5.16291063493384       -0.79290430380182        0.39356122598367
H            4.92326706695574       -1.48857278403984        2.03205120223984
H            7.08218246985157       -1.29979720958338        1.27975836273891
H            8.20380118000760       -0.76647293510083        2.54063831634881
H            8.32682845248285       -0.10129712763178        0.90339508136962
H            6.67727389981897        2.57588281152946        2.73577946627015
H            8.11820386381897        2.17938888974266        1.76837303484233
H            7.97898033669619        1.58679205465943        3.43930437860607
38
 energy: -58.235019938329 gnorm: 0.001910910042 xtb: 6.7.1 (edcfbbe)
C            1.42345953965291        0.25790434700263       -0.17810365423567
C            2.91000527737749        0.06862138823992        0.02140864166295
O            3.71368540933077        0.34036680601579       -0.84989547329840
N            3.31309588362329       -0.47153976560085        1.20413413233031
C            2.43404591268671       -0.83790064783048        2.28864044587963
C            2.10842598142962        0.30748724768324        3.26583996629982
C            1.29400398888134       -0.23673625298942        4.40074192350564
C            1.91405068498478       -0.75205094906313        5.53255358156851
C            1.17601317987822       -1.31583584442282        6.55687076404223
C           -0.20373011575807       -1.36849095761176        6.44755645841689
Cl          -1.13615690883206       -2.08202045240237        7.71858045312347
C           -0.84521938807096       -0.85579037980764        5.33244195277231
C           -0.09167162358265       -0.29605350021336        4.31701677909034
C            4.73975494095787       -0.63257563770453        1.38461254516913
C            5.39101078173594        0.62191306789267        1.97938063102123
O            4.72589952766289        1.55756382409441        2.37767093970550
N            6.74097457204165        0.62830648083296        2.03833261017393
C            7.63015393784522       -0.44150050887726        1.66166418389313
C            7.41443577684689        1.80927321569330        2.53225063551600
H            1.27451428000379        0.72270303488365       -1.14893880344003
H            1.00267441309912        0.89735471027312        0.59164496699844
H            0.90926471299617       -0.70126707306251       -0.16579847082808
H            2.91595200714898       -1.64409101812571        2.85163632850565
H            1.50136473182114       -1.23605829904485        1.88116584719591
H            1.55895883989003        1.08997939607073        2.74332910382070
H            3.03874547901151        0.74291921141272        3.62671315377901
H            2.98987456547885       -0.70593984137550        5.61675736461047
H            1.66389997504641       -1.71281297650086        7.43322471183592
H           -1.92071595707383       -0.89679981300300        5.26088918104216
H           -0.59152993646025        0.10533685809439        3.44771905352291
H            5.16211960944969       -0.80274378577287        0.38897971599352
H            4.92602381416784       -1.49625087230687        2.02892998963645
H            7.09229521520385       -1.29915194690456        1.27456424691535