38
 energy: -58.236267194487 gnorm: 0.000563042832 xtb: 6.7.1 (edcfbbe)
C            1.38925645759458        0.32810265798842       -0.22290137606543
C            2.85815801063026        0.06225629674190        0.01009526418168
O            3.72094832767089        0.58935754902100       -0.66794203993268
N            3.18026420441594       -0.83297082668431        0.98284708914388
C            2.23080099578029       -1.50512769455425        1.83881543427977
C            1.78873840558414       -0.68166709700276        3.06438975678975
C            1.05651188870925       -1.56527154245353        4.02846034400976
C            1.75013946267649       -2.26696782902656        5.00738332168228
C            1.09286486907264       -3.11795977512288        5.87659127733047
C           -0.27918032839056       -3.27328676328685        5.76413629387182
Cl          -1.11150347263196       -4.33667365921661        6.84645982668546
C           -0.99234629001452       -2.58489387683415        4.79706409064576
C           -0.31901428533360       -1.73793591111195        3.93529186834159
C            4.59351807555271       -1.07892772566678        1.17383026827364
C            5.23709349597238       -0.09953286070292        2.16058067254589
O            4.57912335173045        0.55914955099380        2.94384359837078
N            6.58549364915048       -0.04067331865015        2.12104205371787
C            7.40024342045105       -0.77668737687839        1.18248119744609
C            7.27218233014064        0.91991363436070        2.95687555704790
H            1.30377887771074        1.05767270632521       -1.02367221078791
H            0.91790331066166        0.72531567220346        0.67080403161697
H            0.87697153732903       -0.58452168107988       -0.52071859430031
H            2.70231780738348       -2.42544207038213        2.19689109970237
H            1.35168674562127       -1.79266463694781        1.25579669522057
H            1.14536242543629        0.13851095831937        2.74709411088327
H            2.67713605488504       -0.25318385026486        3.52774512434350
H            2.81867737672899       -2.13660329778324        5.09600712272710
H            1.63641495413039       -3.65582439514306        6.63755911923245
H           -2.06112009768847       -2.71068310616114        4.72178396098507
H           -0.87625774581935       -1.19845346186159        3.18325957026502
H            5.06698096427965       -0.95762264477200        0.19565082140487
H            4.74275276240657       -2.10226685289882        1.53041921602163
H            7.14806794161400       -1.83745831551790        1.18933297563093
H            8.44296357139278       -0.67185083056728        1.47482378589765
H            7.28638434856698       -0.39162072250425        0.16502806896604
H            6.52768473956530        1.42856472822793        3.56576435393056
H            7.79694224510807        1.65392599219324        2.34231942274505
H            7.98884961192729        0.41408237670102        3.60698682714837
