      -----------------------------------------------------------      
     |                   =====================                   |     
     |                           x T B                           |     
     |                   =====================                   |     
     |                         S. Grimme                         |     
     |          Mulliken Center for Theoretical Chemistry        |     
     |                    University of Bonn                     |     
      -----------------------------------------------------------      

   * xtb version 6.7.1 (edcfbbe) compiled by 'conda@c0858423619e' on 2025-09-04

   xtb is free software: you can redistribute it and/or modify it under
   the terms of the GNU Lesser General Public License as published by
   the Free Software Foundation, either version 3 of the License, or
   (at your option) any later version.
   
   xtb is distributed in the hope that it will be useful,
   but WITHOUT ANY WARRANTY; without even the implied warranty of
   MERCHANTABILITY or FITNESS FOR A PARTICULAR PURPOSE.  See the
   GNU Lesser General Public License for more details.
   
   Cite this work as:
   * C. Bannwarth, E. Caldeweyher, S. Ehlert, A. Hansen, P. Pracht,
     J. Seibert, S. Spicher, S. Grimme, WIREs Comput. Mol. Sci., 2020, 11,
     e01493. DOI: 10.1002/wcms.1493
   
   for GFN2-xTB:
   * C. Bannwarth, S. Ehlert and S. Grimme., J. Chem. Theory Comput., 2019,
     15, 1652-1671. DOI: 10.1021/acs.jctc.8b01176
   for GFN1-xTB:
   * S. Grimme, C. Bannwarth, P. Shushkov, J. Chem. Theory Comput., 2017,
     13, 1989-2009. DOI: 10.1021/acs.jctc.7b00118
   for GFN0-xTB:
   * P. Pracht, E. Caldeweyher, S. Ehlert, S. Grimme, ChemRxiv, 2019, preprint.
     DOI: 10.26434/chemrxiv.8326202.v1
   for GFN-FF:
   * S. Spicher and S. Grimme, Angew. Chem. Int. Ed., 2020, 59, 15665-15673.
     DOI: 10.1002/anie.202004239
   
   for ALPB and GBSA implicit solvation:
   * S. Ehlert, M. Stahn, S. Spicher, S. Grimme, J. Chem. Theory Comput.,
     2021, 17, 4250-4261. DOI: 10.1021/acs.jctc.1c00471
   
   for ddCOSMO and CPCM-X implicit solvation:
   * M. Stahn, S. Ehlert, S. Grimme, J. Phys. Chem. A,
     2023, XX, XXXX-XXXX. DOI: 10.1021/acs.jpca.3c04382
   
   for DFT-D4:
   * E. Caldeweyher, C. Bannwarth and S. Grimme, J. Chem. Phys., 2017,
     147, 034112. DOI: 10.1063/1.4993215
   * E. Caldeweyher, S. Ehlert, A. Hansen, H. Neugebauer, S. Spicher,
     C. Bannwarth and S. Grimme, J. Chem. Phys., 2019, 150, 154122.
     DOI: 10.1063/1.5090222
   * E. Caldeweyher, J.-M. Mewes, S. Ehlert and S. Grimme, Phys. Chem. Chem. Phys.
     2020, 22, 8499-8512. DOI: 10.1039/D0CP00502A
   
   for sTDA-xTB:
   * S. Grimme and C. Bannwarth, J. Chem. Phys., 2016, 145, 054103.
     DOI: 10.1063/1.4959605
   
   in the mass-spec context:
   * V. Asgeirsson, C. Bauer and S. Grimme, Chem. Sci., 2017, 8, 4879.
     DOI: 10.1039/c7sc00601b
   * J. Koopman and S. Grimme, ACS Omega 2019, 4, 12, 15120-15133.
     DOI: 10.1021/acsomega.9b02011
   
   for metadynamics refer to:
   * S. Grimme, J. Chem. Theory Comput., 2019, 155, 2847-2862
     DOI: 10.1021/acs.jctc.9b00143
   
   for SPH calculations refer to:
   * S. Spicher and S. Grimme, J. Chem. Theory Comput., 2021, 17, 1701-1714
     DOI: 10.1021/acs.jctc.0c01306
   
   for ONIOM refer to:
   * C. Plett, A. Katbashev, S. Ehlert, S. Grimme, M. Bursch,
     Phys. Chem. Chem. Phys., 2023, 25, 17860-17868. DOI: 10.1039/D3CP02178E
   
   for DIPRO refer to:
   * J. Kohn, N. Gildemeister, S. Grimme, D. Fazzi, A. Hansen,
     J. Chem. Phys., 2023, just accepted.
   
   for PTB refer to:
   * S. Grimme, M. Mueller, A. Hansen, J. Chem. Phys., 2023, 158, 124111.
     DOI: 10.1063/5.0137838
   
   with help from (in alphabetical order)
   P. Atkinson, C. Bannwarth, F. Bohle, G. Brandenburg, E. Caldeweyher
   M. Checinski, S. Dohm, S. Ehlert, S. Ehrlich, I. Gerasimov, C. Hölzer
   A. Katbashev, J. Kohn, J. Koopman, C. Lavigne, S. Lehtola, F. März, M. Müller,
   F. Musil, H. Neugebauer, J. Pisarek, C. Plett, P. Pracht, F. Pultar,
   J. Seibert, P. Shushkov, S. Spicher, M. Stahn, M. Steiner, T. Strunk,
   J. Stückrath, T. Rose, and J. Unsleber
   
 * started run on 2026/01/25 at 20:06:40.616     
   ID    Z sym.   atoms
    1    6 C      1, 2, 5, 6, 8-19, 22, 23
    2    8 O      3, 7, 20
    3    7 N      4, 21
    4    1 H      24-49

           -------------------------------------------------
          |                Calculation Setup                |
           -------------------------------------------------

          program call               : xtb /home/tuu61186/STEPs/1_xTB_structureOPT/../0_openBable_SMILES/out/xyz/STEPs_0006.xyz --gfn 2 --opt
          hostname                   : c01
          coordinate file            : /home/tuu61186/STEPs/1_xTB_structureOPT/../0_openBable_SMILES/out/xyz/STEPs_0006.xyz
          omp threads                :                     1


           -------------------------------------------------
          |                 G F N 2 - x T B                 |
           -------------------------------------------------

        Reference                      10.1021/acs.jctc.8b01176
      * Hamiltonian:
        H0-scaling (s, p, d)           1.850000    2.230000    2.230000
        zeta-weighting                 0.500000
      * Dispersion:
        s8                             2.700000
        a1                             0.520000
        a2                             5.000000
        s9                             5.000000
      * Repulsion:
        kExp                           1.500000    1.000000
        rExp                           1.000000
      * Coulomb:
        alpha                          2.000000
        third order                    shell-resolved
        anisotropic                    true
        a3                             3.000000
        a5                             4.000000
        cn-shift                       1.200000
        cn-exp                         4.000000
        max-rad                        5.000000

q/qsh data taken from xtbrestart
CAMM data taken from xtbrestart

          ...................................................
          :                      SETUP                      :
          :.................................................:
          :  # basis functions                 118          :
          :  # atomic orbitals                 118          :
          :  # shells                           72          :
          :  # electrons                       126          :
          :  max. iterations                   250          :
          :  Hamiltonian                  GFN2-xTB          :
          :  restarted?                       true          :
          :  GBSA solvation                  false          :
          :  PC potential                    false          :
          :  electronic temp.          300.0000000     K    :
          :  accuracy                    1.0000000          :
          :  -> integral cutoff          0.2500000E+02      :
          :  -> integral neglect         0.1000000E-07      :
          :  -> SCF convergence          0.1000000E-05 Eh   :
          :  -> wf. convergence          0.1000000E-03 e    :
          :  Broyden damping             0.4000000          :
          :  net charge                          0          :
          :  unpaired electrons                  0          :
          ...................................................

 iter      E             dE          RMSdq      gap      omega  full diag
   1    -70.7404426 -0.707404E+02  0.336E+00    3.83       0.0  T
   2    -70.7467593 -0.631672E-02  0.196E+00    4.01       1.0  T
   3    -70.7460747  0.684584E-03  0.287E-01    4.16       1.0  T
   4    -70.7483323 -0.225764E-02  0.108E-01    4.12       1.0  T
   5    -70.7484750 -0.142601E-03  0.596E-02    4.11       1.0  T
   6    -70.7485136 -0.386699E-04  0.189E-02    4.11       1.0  T
   7    -70.7485193 -0.565734E-05  0.822E-03    4.12       1.7  T
   8    -70.7485202 -0.936676E-06  0.335E-03    4.12       4.3  T
   9    -70.7485203 -0.596981E-07  0.155E-03    4.12       9.2  T
  10    -70.7485203 -0.313972E-07  0.591E-04    4.12      24.2  T
  11    -70.7485203 -0.555448E-08  0.251E-04    4.12      56.8  T

   *** convergence criteria satisfied after 11 iterations ***

         #    Occupation            Energy/Eh            Energy/eV
      -------------------------------------------------------------
         1        2.0000           -0.6942910             -18.8926
       ...           ...                  ...                  ...
        57        2.0000           -0.4089036             -11.1268
        58        2.0000           -0.4021775             -10.9438
        59        2.0000           -0.4007950             -10.9062
        60        2.0000           -0.3925711             -10.6824
        61        2.0000           -0.3901660             -10.6170
        62        2.0000           -0.3851991             -10.4818
        63        2.0000           -0.3766337             -10.2487 (HOMO)
        64                         -0.2252705              -6.1299 (LUMO)
        65                         -0.2233403              -6.0774
        66                         -0.2170247              -5.9055
        67                         -0.2076056              -5.6492
        68                         -0.1005503              -2.7361
       ...                                ...                  ...
       118                          0.6321866              17.2027
      -------------------------------------------------------------
                  HL-Gap            0.1513632 Eh            4.1188 eV
             Fermi-level           -0.3009521 Eh           -8.1893 eV

 SCC (total)                   0 d,  0 h,  0 min,  0.050 sec
 SCC setup                      ...        0 min,  0.000 sec (  0.454%)
 Dispersion                     ...        0 min,  0.001 sec (  1.035%)
 classical contributions        ...        0 min,  0.000 sec (  0.281%)
 integral evaluation            ...        0 min,  0.006 sec ( 12.873%)
 iterations                     ...        0 min,  0.022 sec ( 44.317%)
 molecular gradient             ...        0 min,  0.020 sec ( 40.671%)
 printout                       ...        0 min,  0.000 sec (  0.351%)

         :::::::::::::::::::::::::::::::::::::::::::::::::::::
         ::                     SUMMARY                     ::
         :::::::::::::::::::::::::::::::::::::::::::::::::::::
         :: total energy             -69.870299882984 Eh    ::
         :: gradient norm              0.080340613550 Eh/a0 ::
         :: HOMO-LUMO gap              4.118801823220 eV    ::
         ::.................................................::
         :: SCC energy               -70.747923356875 Eh    ::
         :: -> isotropic ES            0.097303971913 Eh    ::
         :: -> anisotropic ES          0.009278079935 Eh    ::
         :: -> anisotropic XC          0.027433122631 Eh    ::
         :: -> dispersion             -0.047400633315 Eh    ::
         :: repulsion energy           0.877623473891 Eh    ::
         :: add. restraining           0.000000000000 Eh    ::
         :: total charge               0.000000000000 e     ::
         :::::::::::::::::::::::::::::::::::::::::::::::::::::

      ----------------------------------------------------------- 
     |                   =====================                   |
     |                        A N C O P T                        |
     |                   =====================                   |
     |               Approximate Normal Coordinate               |
     |                Rational Function Optimizer                |
      ----------------------------------------------------------- 
      ----------------------------------------------------------- 
     |                   =====================                   |
     |                        A N C O P T                        |
     |                   =====================                   |
     |               Approximate Normal Coordinate               |
     |                Rational Function Optimizer                |
      ----------------------------------------------------------- 

          ...................................................
          :                      SETUP                      :
          :.................................................:
          :   optimization level            normal          :
          :   max. optcycles                   200          :
          :   ANC micro-cycles                  20          :
          :   degrees of freedom               141          :
          :.................................................:
          :   RF solver                   davidson          :
          :   write xtbopt.log                true          :
          :   linear?                        false          :
          :   energy convergence         0.5000000E-05 Eh   :
          :   grad. convergence          0.1000000E-02 Eh/α :
          :   maxmium RF displ.          1.0000000          :
          :   Hlow (freq-cutoff)         0.1000000E-01      :
          :   Hmax (freq-cutoff)         5.0000000          :
          :   S6 in model hess.         20.0000000          :
          ...................................................

generating ANC from exact Hessian ...
Using Lindh-Hessian (1995)
 Shifting diagonal of input Hessian by    9.8330714084239133E-003
 Lowest  eigenvalues of input Hessian
    0.000000    0.000000    0.000000    0.000000    0.000000    0.000000
    0.010000    0.010218    0.010337    0.010454    0.010676    0.011063
    0.011270    0.012251    0.012929    0.013850    0.014326    0.014752
 Highest eigenvalues
    1.724326    1.832776    1.929484    1.948524    2.148208    2.166214


........................................................................
.............................. CYCLE    1 ..............................
........................................................................

 iter      E             dE          RMSdq      gap      omega  full diag
   1    -70.7485203 -0.707485E+02  0.678E-05    4.12       0.0  T
   2    -70.7485203 -0.371756E-10  0.397E-05    4.12     360.0  T
   3    -70.7485203 -0.684963E-11  0.251E-05    4.12     569.2  T
     SCC iter.                  ...        0 min,  0.007 sec
     gradient                   ...        0 min,  0.020 sec
 * total energy  :   -69.8702999 Eh     change       -0.4335021E-09 Eh
   gradient norm :     0.0803420 Eh/α   predicted     0.0000000E+00 (-100.00%)
   displ. norm   :     0.3521004 α      lambda       -0.1442385E-01
   maximum displ.:     0.1052369 α      in ANC's #32, #27, #43, ...

........................................................................
.............................. CYCLE    2 ..............................
........................................................................

 iter      E             dE          RMSdq      gap      omega  full diag
   1    -70.7937930 -0.707938E+02  0.193E-01    4.12       0.0  T
   2    -70.7939376 -0.144575E-03  0.116E-01    4.15       1.0  T
   3    -70.7939275  0.101444E-04  0.449E-02    4.15       1.0  T
   4    -70.7939604 -0.329047E-04  0.642E-03    4.15       2.2  T
   5    -70.7939609 -0.516734E-06  0.331E-03    4.15       4.3  T
   6    -70.7939609 -0.423252E-07  0.146E-03    4.15       9.8  T
   7    -70.7939610 -0.355985E-07  0.677E-04    4.15      21.1  T
   8    -70.7939610 -0.775076E-08  0.205E-04    4.15      69.8  T
     SCC iter.                  ...        0 min,  0.015 sec
     gradient                   ...        0 min,  0.020 sec
 * total energy  :   -69.8797772 Eh     change       -0.9477320E-02 Eh
   gradient norm :     0.0237413 Eh/α   predicted    -0.8109133E-02 ( -14.44%)
   displ. norm   :     0.3364600 α      lambda       -0.3499496E-02
   maximum displ.:     0.1371051 α      in ANC's #7, #15, #9, ...

........................................................................
.............................. CYCLE    3 ..............................
........................................................................

 iter      E             dE          RMSdq      gap      omega  full diag
   1    -70.8126570 -0.708127E+02  0.107E-01    4.15       0.0  T
   2    -70.8127414 -0.843663E-04  0.651E-02    4.16       1.0  T
   3    -70.8127443 -0.289691E-05  0.290E-02    4.16       1.0  T
   4    -70.8127470 -0.270410E-05  0.408E-03    4.16       3.5  T
   5    -70.8127475 -0.526149E-06  0.164E-03    4.16       8.7  T
   6    -70.8127475 -0.161144E-07  0.842E-04    4.16      17.0  T
   7    -70.8127475 -0.113354E-07  0.308E-04    4.16      46.3  T
     SCC iter.                  ...        0 min,  0.013 sec
     gradient                   ...        0 min,  0.020 sec
 * total energy  :   -69.8819525 Eh     change       -0.2175329E-02 Eh
   gradient norm :     0.0108486 Eh/α   predicted    -0.1950990E-02 ( -10.31%)
   displ. norm   :     0.2962493 α      lambda       -0.1050450E-02
   maximum displ.:     0.1558519 α      in ANC's #7, #9, #12, ...

........................................................................
.............................. CYCLE    4 ..............................
........................................................................

 iter      E             dE          RMSdq      gap      omega  full diag
   1    -70.8159378 -0.708159E+02  0.584E-02    4.16       0.0  T
   2    -70.8159683 -0.305943E-04  0.347E-02    4.17       1.0  T
   3    -70.8159695 -0.119763E-05  0.163E-02    4.17       1.0  T
   4    -70.8159699 -0.338530E-06  0.260E-03    4.17       5.5  T
   5    -70.8159702 -0.286541E-06  0.858E-04    4.17      16.6  T
   6    -70.8159702 -0.140379E-07  0.373E-04    4.17      38.3  T
     SCC iter.                  ...        0 min,  0.011 sec
     gradient                   ...        0 min,  0.020 sec
 * total energy  :   -69.8827363 Eh     change       -0.7837456E-03 Eh
   gradient norm :     0.0066522 Eh/α   predicted    -0.5713396E-03 ( -27.10%)
   displ. norm   :     0.4119498 α      lambda       -0.9484724E-03
   maximum displ.:     0.2384236 α      in ANC's #7, #9, #8, ...

........................................................................
.............................. CYCLE    5 ..............................
........................................................................

 iter      E             dE          RMSdq      gap      omega  full diag
   1    -70.8162089 -0.708162E+02  0.669E-02    4.18       0.0  T
   2    -70.8162292 -0.203418E-04  0.393E-02    4.18       1.0  T
   3    -70.8162291  0.907259E-07  0.148E-02    4.18       1.0  T
   4    -70.8162305 -0.139123E-05  0.311E-03    4.18       4.6  T
   5    -70.8162310 -0.424652E-06  0.112E-03    4.18      12.7  T
   6    -70.8162310 -0.169427E-07  0.427E-04    4.18      33.5  T
   7    -70.8162310 -0.118989E-08  0.182E-04    4.18      78.3  T
     SCC iter.                  ...        0 min,  0.013 sec
     gradient                   ...        0 min,  0.020 sec
 * total energy  :   -69.8834392 Eh     change       -0.7028994E-03 Eh
   gradient norm :     0.0063266 Eh/α   predicted    -0.5547214E-03 ( -21.08%)
   displ. norm   :     0.4014437 α      lambda       -0.6513742E-03
   maximum displ.:     0.2279084 α      in ANC's #7, #9, #10, ...

........................................................................
.............................. CYCLE    6 ..............................
........................................................................

 iter      E             dE          RMSdq      gap      omega  full diag
   1    -70.8148865 -0.708149E+02  0.621E-02    4.19       0.0  T
   2    -70.8148923 -0.578512E-05  0.364E-02    4.19       1.0  T
   3    -70.8148912  0.113664E-05  0.880E-03    4.19       1.6  T
   4    -70.8148930 -0.185936E-05  0.228E-03    4.19       6.3  T
   5    -70.8148932 -0.175981E-06  0.104E-03    4.19      13.8  T
   6    -70.8148932 -0.111983E-07  0.306E-04    4.19      46.7  T
   7    -70.8148932 -0.940133E-09  0.151E-04    4.19      94.6  T
     SCC iter.                  ...        0 min,  0.013 sec
     gradient                   ...        0 min,  0.020 sec
 * total energy  :   -69.8839374 Eh     change       -0.4982600E-03 Eh
   gradient norm :     0.0076145 Eh/α   predicted    -0.3781772E-03 ( -24.10%)
   displ. norm   :     0.4081834 α      lambda       -0.5343212E-03
   maximum displ.:     0.2240661 α      in ANC's #7, #10, #9, ...

........................................................................
.............................. CYCLE    7 ..............................
........................................................................

 iter      E             dE          RMSdq      gap      omega  full diag
   1    -70.8143346 -0.708143E+02  0.615E-02    4.20       0.0  T
   2    -70.8143383 -0.363734E-05  0.363E-02    4.20       1.0  T
   3    -70.8143376  0.669790E-06  0.672E-03    4.21       2.1  T
   4    -70.8143388 -0.119539E-05  0.198E-03    4.20       7.2  T
   5    -70.8143389 -0.103767E-06  0.985E-04    4.20      14.5  T
   6    -70.8143389 -0.138465E-07  0.300E-04    4.20      47.7  T
     SCC iter.                  ...        0 min,  0.011 sec
     gradient                   ...        0 min,  0.020 sec
 * total energy  :   -69.8843364 Eh     change       -0.3990035E-03 Eh
   gradient norm :     0.0060768 Eh/α   predicted    -0.3116744E-03 ( -21.89%)
   displ. norm   :     0.3661381 α      lambda       -0.3694337E-03
   maximum displ.:     0.1864937 α      in ANC's #7, #10, #2, ...

........................................................................
.............................. CYCLE    8 ..............................
........................................................................

 iter      E             dE          RMSdq      gap      omega  full diag
   1    -70.8148336 -0.708148E+02  0.553E-02    4.21       0.0  T
   2    -70.8148367 -0.307566E-05  0.327E-02    4.21       1.0  T
   3    -70.8148364  0.254274E-06  0.543E-03    4.21       2.6  T
   4    -70.8148371 -0.638729E-06  0.170E-03    4.21       8.4  T
   5    -70.8148371 -0.629679E-07  0.842E-04    4.21      17.0  T
   6    -70.8148372 -0.123632E-07  0.331E-04    4.21      43.1  T
     SCC iter.                  ...        0 min,  0.011 sec
     gradient                   ...        0 min,  0.020 sec
 * total energy  :   -69.8846008 Eh     change       -0.2643600E-03 Eh
   gradient norm :     0.0038538 Eh/α   predicted    -0.2095009E-03 ( -20.75%)
   displ. norm   :     0.2776752 α      lambda       -0.2111310E-03
   maximum displ.:     0.1295274 α      in ANC's #2, #10, #7, ...

........................................................................
.............................. CYCLE    9 ..............................
........................................................................

 iter      E             dE          RMSdq      gap      omega  full diag
   1    -70.8161445 -0.708161E+02  0.425E-02    4.22       0.0  T
   2    -70.8161460 -0.152882E-05  0.252E-02    4.22       1.0  T
   3    -70.8161459  0.108958E-06  0.376E-03    4.22       3.8  T
   4    -70.8161462 -0.324948E-06  0.116E-03    4.22      12.4  T
   5    -70.8161463 -0.207476E-07  0.579E-04    4.22      24.7  T
   6    -70.8161463 -0.521706E-08  0.250E-04    4.22      57.1  T
     SCC iter.                  ...        0 min,  0.011 sec
     gradient                   ...        0 min,  0.020 sec
 * total energy  :   -69.8847578 Eh     change       -0.1569724E-03 Eh
   gradient norm :     0.0039869 Eh/α   predicted    -0.1137060E-03 ( -27.56%)
   displ. norm   :     0.2557569 α      lambda       -0.1683813E-03
   maximum displ.:     0.1402642 α      in ANC's #2, #10, #17, ...

........................................................................
.............................. CYCLE   10 ..............................
........................................................................

 iter      E             dE          RMSdq      gap      omega  full diag
   1    -70.8172093 -0.708172E+02  0.392E-02    4.22       0.0  T
   2    -70.8172102 -0.895513E-06  0.233E-02    4.22       1.0  T
   3    -70.8172102  0.380308E-07  0.278E-03    4.22       5.1  T
   4    -70.8172104 -0.207439E-06  0.101E-03    4.22      14.2  T
   5    -70.8172104 -0.109914E-07  0.488E-04    4.22      29.3  T
   6    -70.8172104 -0.392254E-08  0.216E-04    4.22      66.3  T
     SCC iter.                  ...        0 min,  0.011 sec
     gradient                   ...        0 min,  0.020 sec
 * total energy  :   -69.8848892 Eh     change       -0.1314147E-03 Eh
   gradient norm :     0.0041338 Eh/α   predicted    -0.8969959E-04 ( -31.74%)
   displ. norm   :     0.2789376 α      lambda       -0.1705459E-03
   maximum displ.:     0.1683019 α      in ANC's #2, #1, #10, ...

........................................................................
.............................. CYCLE   11 ..............................
........................................................................

 iter      E             dE          RMSdq      gap      omega  full diag
   1    -70.8177698 -0.708178E+02  0.421E-02    4.21       0.0  T
   2    -70.8177707 -0.869561E-06  0.251E-02    4.22       1.0  T
   3    -70.8177707 -0.103741E-07  0.261E-03    4.22       5.5  T
   4    -70.8177708 -0.171345E-06  0.107E-03    4.22      13.4  T
   5    -70.8177709 -0.107672E-07  0.547E-04    4.22      26.1  T
   6    -70.8177709 -0.471728E-08  0.219E-04    4.22      65.1  T
     SCC iter.                  ...        0 min,  0.011 sec
     gradient                   ...        0 min,  0.020 sec
 * total energy  :   -69.8850253 Eh     change       -0.1360841E-03 Eh
   gradient norm :     0.0036820 Eh/α   predicted    -0.9191596E-04 ( -32.46%)
   displ. norm   :     0.3134009 α      lambda       -0.1774310E-03
   maximum displ.:     0.1988934 α      in ANC's #2, #1, #4, ...

........................................................................
.............................. CYCLE   12 ..............................
........................................................................

 iter      E             dE          RMSdq      gap      omega  full diag
   1    -70.8176387 -0.708176E+02  0.461E-02    4.21       0.0  T
   2    -70.8176396 -0.915926E-06  0.274E-02    4.21       1.0  T
   3    -70.8176396 -0.497593E-07  0.263E-03    4.21       5.4  T
   4    -70.8176398 -0.156467E-06  0.117E-03    4.21      12.2  T
   5    -70.8176398 -0.125737E-07  0.608E-04    4.21      23.5  T
   6    -70.8176398 -0.430734E-08  0.225E-04    4.21      63.5  T
     SCC iter.                  ...        0 min,  0.011 sec
     gradient                   ...        0 min,  0.020 sec
 * total energy  :   -69.8851701 Eh     change       -0.1448294E-03 Eh
   gradient norm :     0.0037485 Eh/α   predicted    -0.9742981E-04 ( -32.73%)
   displ. norm   :     0.3679078 α      lambda       -0.1995254E-03
   maximum displ.:     0.2379257 α      in ANC's #2, #1, #4, ...

........................................................................
.............................. CYCLE   13 ..............................
........................................................................

 iter      E             dE          RMSdq      gap      omega  full diag
   1    -70.8169744 -0.708170E+02  0.537E-02    4.21       0.0  T
   2    -70.8169753 -0.910989E-06  0.317E-02    4.21       1.0  T
   3    -70.8169754 -0.974684E-07  0.270E-03    4.21       5.3  T
   4    -70.8169756 -0.153868E-06  0.127E-03    4.21      11.2  T
   5    -70.8169756 -0.117929E-07  0.636E-04    4.21      22.5  T
   6    -70.8169756 -0.395728E-08  0.227E-04    4.21      62.9  T
     SCC iter.                  ...        0 min,  0.011 sec
     gradient                   ...        0 min,  0.020 sec
 * total energy  :   -69.8853370 Eh     change       -0.1668883E-03 Eh
   gradient norm :     0.0048246 Eh/α   predicted    -0.1132668E-03 ( -32.13%)
   displ. norm   :     0.4407926 α      lambda       -0.2435971E-03
   maximum displ.:     0.2856064 α      in ANC's #2, #1, #4, ...

........................................................................
.............................. CYCLE   14 ..............................
........................................................................

 iter      E             dE          RMSdq      gap      omega  full diag
   1    -70.8159197 -0.708159E+02  0.648E-02    4.21       0.0  T
   2    -70.8159208 -0.103688E-05  0.381E-02    4.21       1.0  T
   3    -70.8159209 -0.124023E-06  0.300E-03    4.21       4.8  T
   4    -70.8159211 -0.202812E-06  0.140E-03    4.21      10.2  T
   5    -70.8159211 -0.124293E-07  0.692E-04    4.21      20.6  T
   6    -70.8159211 -0.532805E-08  0.226E-04    4.21      63.1  T
     SCC iter.                  ...        0 min,  0.011 sec
     gradient                   ...        0 min,  0.020 sec
 * total energy  :   -69.8855438 Eh     change       -0.2068130E-03 Eh
   gradient norm :     0.0060277 Eh/α   predicted    -0.1454644E-03 ( -29.66%)
   displ. norm   :     0.5094549 α      lambda       -0.3055962E-03
   maximum displ.:     0.3282209 α      in ANC's #2, #1, #4, ...

........................................................................
.............................. CYCLE   15 ..............................
........................................................................

 iter      E             dE          RMSdq      gap      omega  full diag
   1    -70.8151741 -0.708152E+02  0.766E-02    4.21       0.0  T
   2    -70.8151753 -0.124004E-05  0.450E-02    4.22       1.0  T
   3    -70.8151754 -0.629922E-07  0.343E-03    4.22       4.2  T
   4    -70.8151757 -0.341260E-06  0.152E-03    4.22       9.4  T
   5    -70.8151757 -0.209987E-07  0.773E-04    4.22      18.5  T
   6    -70.8151757 -0.735722E-08  0.219E-04    4.22      65.2  T
     SCC iter.                  ...        0 min,  0.011 sec
     gradient                   ...        0 min,  0.020 sec
 * total energy  :   -69.8858026 Eh     change       -0.2587535E-03 Eh
   gradient norm :     0.0065524 Eh/α   predicted    -0.1924571E-03 ( -25.62%)
   displ. norm   :     0.5679756 α      lambda       -0.3595810E-03
   maximum displ.:     0.3608624 α      in ANC's #2, #1, #4, ...

........................................................................
.............................. CYCLE   16 ..............................
........................................................................

 iter      E             dE          RMSdq      gap      omega  full diag
   1    -70.8143583 -0.708144E+02  0.876E-02    4.23       0.0  T
   2    -70.8143598 -0.155736E-05  0.514E-02    4.23       1.0  T
   3    -70.8143598  0.935681E-08  0.383E-03    4.23       3.7  T
   4    -70.8143603 -0.494110E-06  0.169E-03    4.23       8.5  T
   5    -70.8143603 -0.422166E-07  0.864E-04    4.23      16.5  T
   6    -70.8143603 -0.748854E-08  0.244E-04    4.23      58.5  T
     SCC iter.                  ...        0 min,  0.011 sec
     gradient                   ...        0 min,  0.020 sec
 * total energy  :   -69.8861023 Eh     change       -0.2997276E-03 Eh
   gradient norm :     0.0068567 Eh/α   predicted    -0.2377915E-03 ( -20.66%)
   displ. norm   :     0.5544151 α      lambda       -0.4574463E-03
   maximum displ.:     0.3350600 α      in ANC's #2, #7, #4, ...

........................................................................
.............................. CYCLE   17 ..............................
........................................................................

 iter      E             dE          RMSdq      gap      omega  full diag
   1    -70.8202122 -0.708202E+02  0.972E-02    4.25       0.0  T
   2    -70.8202172 -0.501981E-05  0.568E-02    4.25       1.0  T
   3    -70.8202168  0.401381E-06  0.610E-03    4.25       2.3  T
   4    -70.8202179 -0.110024E-05  0.245E-03    4.25       5.8  T
   5    -70.8202181 -0.161631E-06  0.120E-03    4.25      11.9  T
   6    -70.8202181 -0.908034E-08  0.374E-04    4.25      38.2  T
   7    -70.8202181 -0.197585E-08  0.142E-04    4.25     100.3  T
     SCC iter.                  ...        0 min,  0.013 sec
     gradient                   ...        0 min,  0.020 sec
 * total energy  :   -69.8862881 Eh     change       -0.1857939E-03 Eh
   gradient norm :     0.0107375 Eh/α   predicted    -0.2990314E-03 (  60.95%)
   displ. norm   :     0.5835123 α      lambda       -0.5746604E-03
   maximum displ.:     0.3620736 α      in ANC's #2, #4, #1, ...

........................................................................
.............................. CYCLE   18 ..............................
........................................................................

 iter      E             dE          RMSdq      gap      omega  full diag
   1    -70.8137887 -0.708138E+02  0.967E-02    4.26       0.0  T
   2    -70.8137975 -0.877019E-05  0.562E-02    4.26       1.0  T
   3    -70.8137979 -0.332411E-06  0.690E-03    4.26       2.1  T
   4    -70.8137984 -0.546807E-06  0.246E-03    4.26       5.8  T
   5    -70.8137985 -0.102203E-06  0.138E-03    4.26      10.3  T
   6    -70.8137985 -0.211208E-07  0.466E-04    4.26      30.7  T
   7    -70.8137985 -0.295174E-08  0.173E-04    4.26      82.8  T
     SCC iter.                  ...        0 min,  0.013 sec
     gradient                   ...        0 min,  0.020 sec
 * total energy  :   -69.8865518 Eh     change       -0.2637604E-03 Eh
   gradient norm :     0.0088857 Eh/α   predicted    -0.3851643E-03 (  46.03%)
   displ. norm   :     0.1884902 α      lambda       -0.1772743E-03
   maximum displ.:     0.1254565 α      in ANC's #2, #1, #4, ...

........................................................................
.............................. CYCLE   19 ..............................
........................................................................

 iter      E             dE          RMSdq      gap      omega  full diag
   1    -70.8148070 -0.708148E+02  0.293E-02    4.26       0.0  T
   2    -70.8148079 -0.857737E-06  0.171E-02    4.26       1.0  T
   3    -70.8148078  0.556624E-07  0.268E-03    4.26       5.3  T
   4    -70.8148080 -0.159607E-06  0.735E-04    4.26      19.4  T
   5    -70.8148080 -0.712222E-08  0.409E-04    4.26      34.9  T
     SCC iter.                  ...        0 min,  0.009 sec
     gradient                   ...        0 min,  0.020 sec
 * total energy  :   -69.8866929 Eh     change       -0.1410791E-03 Eh
   gradient norm :     0.0056119 Eh/α   predicted    -0.9178932E-04 ( -34.94%)
   displ. norm   :     0.4049680 α      lambda       -0.3112237E-03
   maximum displ.:     0.2634698 α      in ANC's #2, #4, #1, ...

........................................................................
.............................. CYCLE   20 ..............................
........................................................................

 iter      E             dE          RMSdq      gap      omega  full diag
   1    -70.8205651 -0.708206E+02  0.603E-02    4.26       0.0  T
   2    -70.8205668 -0.169555E-05  0.354E-02    4.27       1.0  T
   3    -70.8205667  0.119486E-06  0.385E-03    4.27       3.7  T
   4    -70.8205671 -0.409487E-06  0.138E-03    4.27      10.3  T
   5    -70.8205671 -0.285177E-07  0.720E-04    4.27      19.8  T
   6    -70.8205671 -0.306613E-08  0.279E-04    4.27      51.2  T
     SCC iter.                  ...        0 min,  0.011 sec
     gradient                   ...        0 min,  0.020 sec
 * total energy  :   -69.8868989 Eh     change       -0.2060058E-03 Eh
   gradient norm :     0.0030453 Eh/α   predicted    -0.1811367E-03 ( -12.07%)
   displ. norm   :     0.7335705 α      lambda       -0.2693412E-03
   maximum displ.:     0.4862164 α      in ANC's #2, #1, #4, ...
 * RMSD in coord.:     0.8884834 α      energy gain  -0.1659904E-01 Eh

generating ANC from exact Hessian ...
Using Lindh-Hessian (1995)
 Shifting diagonal of input Hessian by    9.8056279193935256E-003
 Lowest  eigenvalues of input Hessian
    0.000000    0.000000    0.000000    0.000000    0.000000    0.000000
    0.010000    0.010187    0.010368    0.010593    0.010774    0.011163
    0.011346    0.012477    0.013332    0.014073    0.014712    0.015491
 Highest eigenvalues
    1.867447    1.895725    1.998947    2.021944    2.282078    2.307716


........................................................................
.............................. CYCLE   21 ..............................
........................................................................

 iter      E             dE          RMSdq      gap      omega  full diag
   1    -70.8134702 -0.708135E+02  0.106E-01    4.27       0.0  T
   2    -70.8134740 -0.374496E-05  0.625E-02    4.27       1.0  T
   3    -70.8134740 -0.291797E-07  0.507E-03    4.27       2.8  T
   4    -70.8134747 -0.739830E-06  0.197E-03    4.27       7.3  T
   5    -70.8134748 -0.319194E-07  0.117E-03    4.27      12.2  T
   6    -70.8134748 -0.103039E-07  0.402E-04    4.27      35.6  T
   7    -70.8134748 -0.284702E-08  0.146E-04    4.27      98.0  T
     SCC iter.                  ...        0 min,  0.013 sec
     gradient                   ...        0 min,  0.020 sec
 * total energy  :   -69.8870673 Eh     change       -0.1683677E-03 Eh
   gradient norm :     0.0067203 Eh/α   predicted     0.0000000E+00 (-100.00%)
   displ. norm   :     0.0563839 α      lambda       -0.1462458E-03
   maximum displ.:     0.0213584 α      in ANC's #12, #5, #10, ...

........................................................................
.............................. CYCLE   22 ..............................
........................................................................

 iter      E             dE          RMSdq      gap      omega  full diag
   1    -70.8185782 -0.708186E+02  0.183E-02    4.28       0.0  T
   2    -70.8185787 -0.476112E-06  0.106E-02    4.28       1.4  T
   3    -70.8185787  0.198456E-08  0.206E-03    4.28       6.9  T
   4    -70.8185787 -0.591896E-07  0.659E-04    4.28      21.7  T
   5    -70.8185787 -0.588592E-08  0.350E-04    4.28      40.8  T
     SCC iter.                  ...        0 min,  0.009 sec
     gradient                   ...        0 min,  0.020 sec
 * total energy  :   -69.8871687 Eh     change       -0.1013642E-03 Eh
   gradient norm :     0.0021476 Eh/α   predicted    -0.7381324E-04 ( -27.18%)
   displ. norm   :     0.0873138 α      lambda       -0.7553444E-04
   maximum displ.:     0.0380697 α      in ANC's #5, #10, #12, ...

........................................................................
.............................. CYCLE   23 ..............................
........................................................................

 iter      E             dE          RMSdq      gap      omega  full diag
   1    -70.8214077 -0.708214E+02  0.185E-02    4.28       0.0  T
   2    -70.8214080 -0.326926E-06  0.109E-02    4.28       1.3  T
   3    -70.8214080  0.111551E-07  0.176E-03    4.28       8.1  T
   4    -70.8214081 -0.540863E-07  0.530E-04    4.28      26.9  T
   5    -70.8214081 -0.425597E-08  0.289E-04    4.28      49.4  T
     SCC iter.                  ...        0 min,  0.009 sec
     gradient                   ...        0 min,  0.020 sec
 * total energy  :   -69.8872233 Eh     change       -0.5467563E-04 Eh
   gradient norm :     0.0017096 Eh/α   predicted    -0.3805933E-04 ( -30.39%)
   displ. norm   :     0.2113942 α      lambda       -0.7276874E-04
   maximum displ.:     0.0984261 α      in ANC's #5, #10, #12, ...

........................................................................
.............................. CYCLE   24 ..............................
........................................................................

 iter      E             dE          RMSdq      gap      omega  full diag
   1    -70.8227795 -0.708228E+02  0.392E-02    4.29       0.0  T
   2    -70.8227805 -0.108889E-05  0.232E-02    4.29       1.0  T
   3    -70.8227804  0.127942E-06  0.341E-03    4.29       4.2  T
   4    -70.8227807 -0.289561E-06  0.946E-04    4.29      15.1  T
   5    -70.8227807 -0.143553E-07  0.532E-04    4.29      26.9  T
     SCC iter.                  ...        0 min,  0.009 sec
     gradient                   ...        0 min,  0.020 sec
 * total energy  :   -69.8872977 Eh     change       -0.7432965E-04 Eh
   gradient norm :     0.0034538 Eh/α   predicted    -0.3711012E-04 ( -50.07%)
   displ. norm   :     0.1558976 α      lambda       -0.6680389E-04
   maximum displ.:     0.0755326 α      in ANC's #5, #10, #12, ...

........................................................................
.............................. CYCLE   25 ..............................
........................................................................

 iter      E             dE          RMSdq      gap      omega  full diag
   1    -70.8214999 -0.708215E+02  0.271E-02    4.29       0.0  T
   2    -70.8215003 -0.425665E-06  0.161E-02    4.29       1.0  T
   3    -70.8215003  0.443829E-07  0.202E-03    4.29       7.1  T
   4    -70.8215004 -0.109182E-06  0.567E-04    4.29      25.2  T
   5    -70.8215004 -0.382602E-08  0.334E-04    4.29      42.8  T
     SCC iter.                  ...        0 min,  0.009 sec
     gradient                   ...        0 min,  0.020 sec
 * total energy  :   -69.8873544 Eh     change       -0.5673599E-04 Eh
   gradient norm :     0.0026710 Eh/α   predicted    -0.3421505E-04 ( -39.69%)
   displ. norm   :     0.3072758 α      lambda       -0.1113625E-03
   maximum displ.:     0.1486098 α      in ANC's #5, #10, #12, ...

........................................................................
.............................. CYCLE   26 ..............................
........................................................................

 iter      E             dE          RMSdq      gap      omega  full diag
   1    -70.8183443 -0.708183E+02  0.514E-02    4.29       0.0  T
   2    -70.8183456 -0.134388E-05  0.304E-02    4.29       1.0  T
   3    -70.8183455  0.100034E-06  0.339E-03    4.29       4.2  T
   4    -70.8183458 -0.313402E-06  0.107E-03    4.29      13.3  T
   5    -70.8183458 -0.128745E-07  0.639E-04    4.29      22.4  T
   6    -70.8183458 -0.402100E-08  0.195E-04    4.29      73.1  T
     SCC iter.                  ...        0 min,  0.011 sec
     gradient                   ...        0 min,  0.020 sec
 * total energy  :   -69.8874268 Eh     change       -0.7242474E-04 Eh
   gradient norm :     0.0028578 Eh/α   predicted    -0.6094639E-04 ( -15.85%)
   displ. norm   :     0.1451922 α      lambda       -0.4584565E-04
   maximum displ.:     0.0716678 α      in ANC's #5, #10, #2, ...

........................................................................
.............................. CYCLE   27 ..............................
........................................................................

 iter      E             dE          RMSdq      gap      omega  full diag
   1    -70.8177093 -0.708177E+02  0.232E-02    4.29       0.0  T
   2    -70.8177094 -0.184679E-06  0.137E-02    4.29       1.0  T
   3    -70.8177094 -0.262149E-08  0.121E-03    4.29      11.8  T
   4    -70.8177095 -0.390371E-07  0.495E-04    4.29      28.9  T
   5    -70.8177095 -0.179296E-08  0.285E-04    4.29      50.2  T
     SCC iter.                  ...        0 min,  0.009 sec
     gradient                   ...        0 min,  0.020 sec
 * total energy  :   -69.8874651 Eh     change       -0.3826379E-04 Eh
   gradient norm :     0.0028508 Eh/α   predicted    -0.2342014E-04 ( -38.79%)
   displ. norm   :     0.2337653 α      lambda       -0.9549974E-04
   maximum displ.:     0.1119696 α      in ANC's #5, #2, #4, ...

........................................................................
.............................. CYCLE   28 ..............................
........................................................................

 iter      E             dE          RMSdq      gap      omega  full diag
   1    -70.8183413 -0.708183E+02  0.383E-02    4.29       0.0  T
   2    -70.8183419 -0.564958E-06  0.225E-02    4.29       1.0  T
   3    -70.8183419  0.834808E-08  0.231E-03    4.29       6.2  T
   4    -70.8183420 -0.152160E-06  0.854E-04    4.29      16.7  T
   5    -70.8183420 -0.326011E-08  0.435E-04    4.29      32.8  T
     SCC iter.                  ...        0 min,  0.009 sec
     gradient                   ...        0 min,  0.020 sec
 * total energy  :   -69.8875353 Eh     change       -0.7021968E-04 Eh
   gradient norm :     0.0022150 Eh/α   predicted    -0.5036344E-04 ( -28.28%)
   displ. norm   :     0.2795041 α      lambda       -0.7367597E-04
   maximum displ.:     0.1370970 α      in ANC's #5, #2, #4, ...

........................................................................
.............................. CYCLE   29 ..............................
........................................................................

 iter      E             dE          RMSdq      gap      omega  full diag
   1    -70.8183279 -0.708183E+02  0.461E-02    4.30       0.0  T
   2    -70.8183285 -0.560355E-06  0.270E-02    4.30       1.0  T
   3    -70.8183285 -0.567326E-07  0.208E-03    4.30       6.9  T
   4    -70.8183286 -0.106995E-06  0.922E-04    4.30      15.5  T
   5    -70.8183286 -0.381098E-08  0.484E-04    4.30      29.5  T
     SCC iter.                  ...        0 min,  0.009 sec
     gradient                   ...        0 min,  0.020 sec
 * total energy  :   -69.8875940 Eh     change       -0.5870339E-04 Eh
   gradient norm :     0.0028194 Eh/α   predicted    -0.3971854E-04 ( -32.34%)
   displ. norm   :     0.2993674 α      lambda       -0.8702037E-04
   maximum displ.:     0.1467451 α      in ANC's #2, #5, #4, ...

........................................................................
.............................. CYCLE   30 ..............................
........................................................................

 iter      E             dE          RMSdq      gap      omega  full diag
   1    -70.8190943 -0.708191E+02  0.503E-02    4.30       0.0  T
   2    -70.8190949 -0.623038E-06  0.294E-02    4.31       1.0  T
   3    -70.8190950 -0.527329E-07  0.232E-03    4.31       6.1  T
   4    -70.8190951 -0.152928E-06  0.101E-03    4.31      14.1  T
   5    -70.8190951 -0.549043E-08  0.522E-04    4.31      27.3  T
   6    -70.8190951 -0.376332E-08  0.175E-04    4.31      81.8  T
     SCC iter.                  ...        0 min,  0.011 sec
     gradient                   ...        0 min,  0.020 sec
 * total energy  :   -69.8876675 Eh     change       -0.7350764E-04 Eh
   gradient norm :     0.0028246 Eh/α   predicted    -0.4741755E-04 ( -35.49%)
   displ. norm   :     0.4328778 α      lambda       -0.1263446E-03
   maximum displ.:     0.2183136 α      in ANC's #2, #5, #4, ...

........................................................................
.............................. CYCLE   31 ..............................
........................................................................

 iter      E             dE          RMSdq      gap      omega  full diag
   1    -70.8187460 -0.708187E+02  0.726E-02    4.31       0.0  T
   2    -70.8187473 -0.121398E-05  0.425E-02    4.32       1.0  T
   3    -70.8187474 -0.156034E-06  0.307E-03    4.32       4.6  T
   4    -70.8187477 -0.252239E-06  0.147E-03    4.32       9.7  T
   5    -70.8187477 -0.159101E-07  0.785E-04    4.32      18.2  T
   6    -70.8187477 -0.820182E-08  0.217E-04    4.32      65.8  T
     SCC iter.                  ...        0 min,  0.011 sec
     gradient                   ...        0 min,  0.020 sec
 * total energy  :   -69.8877737 Eh     change       -0.1061595E-03 Eh
   gradient norm :     0.0031247 Eh/α   predicted    -0.7501060E-04 ( -29.34%)
   displ. norm   :     0.4679348 α      lambda       -0.1589178E-03
   maximum displ.:     0.2491549 α      in ANC's #2, #4, #5, ...

........................................................................
.............................. CYCLE   32 ..............................
........................................................................

 iter      E             dE          RMSdq      gap      omega  full diag
   1    -70.8197090 -0.708197E+02  0.785E-02    4.32       0.0  T
   2    -70.8197107 -0.168334E-05  0.459E-02    4.32       1.0  T
   3    -70.8197107 -0.411880E-07  0.407E-03    4.33       3.5  T
   4    -70.8197112 -0.534622E-06  0.167E-03    4.32       8.6  T
   5    -70.8197112 -0.187563E-07  0.892E-04    4.32      16.0  T
   6    -70.8197113 -0.912725E-08  0.269E-04    4.32      53.1  T
     SCC iter.                  ...        0 min,  0.011 sec
     gradient                   ...        0 min,  0.020 sec
 * total energy  :   -69.8878913 Eh     change       -0.1175959E-03 Eh
   gradient norm :     0.0034486 Eh/α   predicted    -0.9685966E-04 ( -17.63%)
   displ. norm   :     0.5811695 α      lambda       -0.1481465E-03
   maximum displ.:     0.3049839 α      in ANC's #2, #5, #4, ...

........................................................................
.............................. CYCLE   33 ..............................
........................................................................

 iter      E             dE          RMSdq      gap      omega  full diag
   1    -70.8147359 -0.708147E+02  0.952E-02    4.33       0.0  T
   2    -70.8147393 -0.340990E-05  0.557E-02    4.33       1.0  T
   3    -70.8147396 -0.214462E-06  0.471E-03    4.33       3.0  T
   4    -70.8147401 -0.551594E-06  0.195E-03    4.33       7.3  T
   5    -70.8147401 -0.235495E-07  0.113E-03    4.33      12.7  T
   6    -70.8147401 -0.121497E-07  0.348E-04    4.33      41.1  T
   7    -70.8147401 -0.249560E-08  0.128E-04    4.33     111.2  T
     SCC iter.                  ...        0 min,  0.013 sec
     gradient                   ...        0 min,  0.020 sec
 * total energy  :   -69.8879682 Eh     change       -0.7696158E-04 Eh
   gradient norm :     0.0068248 Eh/α   predicted    -0.9910137E-04 (  28.77%)
   displ. norm   :     0.2363641 α      lambda       -0.1672508E-03
   maximum displ.:     0.1369953 α      in ANC's #2, #4, #5, ...

........................................................................
.............................. CYCLE   34 ..............................
........................................................................

 iter      E             dE          RMSdq      gap      omega  full diag
   1    -70.8189223 -0.708189E+02  0.370E-02    4.33       0.0  T
   2    -70.8189239 -0.165253E-05  0.216E-02    4.33       1.0  T
   3    -70.8189237  0.271003E-06  0.451E-03    4.33       3.2  T
   4    -70.8189242 -0.534398E-06  0.104E-03    4.33      13.7  T
   5    -70.8189242 -0.164044E-07  0.591E-04    4.33      24.2  T
   6    -70.8189242 -0.188102E-08  0.263E-04    4.33      54.2  T
     SCC iter.                  ...        0 min,  0.011 sec
     gradient                   ...        0 min,  0.020 sec
 * total energy  :   -69.8880798 Eh     change       -0.1115670E-03 Eh
   gradient norm :     0.0037778 Eh/α   predicted    -0.8829952E-04 ( -20.86%)
   displ. norm   :     0.4644479 α      lambda       -0.1312127E-03
   maximum displ.:     0.2679550 α      in ANC's #2, #4, #5, ...

........................................................................
.............................. CYCLE   35 ..............................
........................................................................

 iter      E             dE          RMSdq      gap      omega  full diag
   1    -70.8182885 -0.708183E+02  0.717E-02    4.33       0.0  T
   2    -70.8182902 -0.171533E-05  0.419E-02    4.33       1.0  T
   3    -70.8182900  0.178921E-06  0.442E-03    4.34       3.2  T
   4    -70.8182907 -0.669447E-06  0.149E-03    4.34       9.6  T
   5    -70.8182907 -0.185759E-07  0.864E-04    4.34      16.5  T
   6    -70.8182907 -0.893736E-08  0.251E-04    4.34      57.0  T
     SCC iter.                  ...        0 min,  0.011 sec
     gradient                   ...        0 min,  0.020 sec
 * total energy  :   -69.8881906 Eh     change       -0.1107620E-03 Eh
   gradient norm :     0.0040758 Eh/α   predicted    -0.7975880E-04 ( -27.99%)
   displ. norm   :     0.5768175 α      lambda       -0.2108305E-03
   maximum displ.:     0.3371157 α      in ANC's #2, #4, #5, ...

........................................................................
.............................. CYCLE   36 ..............................
........................................................................

 iter      E             dE          RMSdq      gap      omega  full diag
   1    -70.8191304 -0.708191E+02  0.858E-02    4.34       0.0  T
   2    -70.8191327 -0.233069E-05  0.503E-02    4.34       1.0  T
   3    -70.8191323  0.367531E-06  0.541E-03    4.34       2.6  T
   4    -70.8191334 -0.103601E-05  0.174E-03    4.34       8.2  T
   5    -70.8191334 -0.229297E-07  0.991E-04    4.34      14.4  T
   6    -70.8191334 -0.125644E-07  0.356E-04    4.34      40.2  T
     SCC iter.                  ...        0 min,  0.011 sec
     gradient                   ...        0 min,  0.020 sec
 * total energy  :   -69.8883585 Eh     change       -0.1679566E-03 Eh
   gradient norm :     0.0043360 Eh/α   predicted    -0.1404902E-03 ( -16.35%)
   displ. norm   :     0.6284978 α      lambda       -0.1901559E-03
   maximum displ.:     0.3664287 α      in ANC's #2, #4, #5, ...

........................................................................
.............................. CYCLE   37 ..............................
........................................................................

 iter      E             dE          RMSdq      gap      omega  full diag
   1    -70.8166547 -0.708167E+02  0.936E-02    4.34       0.0  T
   2    -70.8166578 -0.312687E-05  0.548E-02    4.34       1.0  T
   3    -70.8166577  0.113375E-06  0.532E-03    4.34       2.7  T
   4    -70.8166586 -0.852510E-06  0.184E-03    4.34       7.7  T
   5    -70.8166586 -0.265792E-07  0.107E-03    4.34      13.4  T
   6    -70.8166586 -0.110163E-07  0.354E-04    4.34      40.3  T
   7    -70.8166586 -0.287875E-08  0.139E-04    4.34     102.6  T
     SCC iter.                  ...        0 min,  0.013 sec
     gradient                   ...        0 min,  0.020 sec
 * total energy  :   -69.8885140 Eh     change       -0.1554526E-03 Eh
   gradient norm :     0.0057286 Eh/α   predicted    -0.1326362E-03 ( -14.68%)
   displ. norm   :     0.5184705 α      lambda       -0.2759873E-03
   maximum displ.:     0.2936444 α      in ANC's #2, #4, #5, ...

........................................................................
.............................. CYCLE   38 ..............................
........................................................................

 iter      E             dE          RMSdq      gap      omega  full diag
   1    -70.8236445 -0.708236E+02  0.777E-02    4.34       0.0  T
   2    -70.8236503 -0.575883E-05  0.452E-02    4.34       1.0  T
   3    -70.8236495  0.788192E-06  0.845E-03    4.35       1.7  T
   4    -70.8236511 -0.167294E-05  0.175E-03    4.34       8.2  T
   5    -70.8236512 -0.323901E-07  0.975E-04    4.34      14.6  T
   6    -70.8236512 -0.364066E-08  0.348E-04    4.34      41.0  T
     SCC iter.                  ...        0 min,  0.011 sec
     gradient                   ...        0 min,  0.020 sec
 * total energy  :   -69.8886335 Eh     change       -0.1194816E-03 Eh
   gradient norm :     0.0072090 Eh/α   predicted    -0.1750903E-03 (  46.54%)
   displ. norm   :     0.6090465 α      lambda       -0.2929129E-03
   maximum displ.:     0.3502606 α      in ANC's #2, #4, #5, ...

........................................................................
.............................. CYCLE   39 ..............................
........................................................................

 iter      E             dE          RMSdq      gap      omega  full diag
   1    -70.8154158 -0.708154E+02  0.969E-02    4.35       0.0  T
   2    -70.8154236 -0.778965E-05  0.566E-02    4.35       1.0  T
   3    -70.8154228  0.799769E-06  0.880E-03    4.35       1.6  T
   4    -70.8154248 -0.200980E-05  0.202E-03    4.35       7.1  T
   5    -70.8154249 -0.245529E-07  0.115E-03    4.35      12.5  T
   6    -70.8154249 -0.447638E-08  0.367E-04    4.35      38.9  T
   7    -70.8154249 -0.270140E-08  0.157E-04    4.35      90.8  T
     SCC iter.                  ...        0 min,  0.013 sec
     gradient                   ...        0 min,  0.020 sec
 * total energy  :   -69.8888098 Eh     change       -0.1763099E-03 Eh
   gradient norm :     0.0076527 Eh/α   predicted    -0.2007845E-03 (  13.88%)
   displ. norm   :     0.2721999 α      lambda       -0.1946255E-03
   maximum displ.:     0.1524516 α      in ANC's #2, #4, #5, ...

........................................................................
.............................. CYCLE   40 ..............................
........................................................................

 iter      E             dE          RMSdq      gap      omega  full diag
   1    -70.8144308 -0.708144E+02  0.439E-02    4.34       0.0  T
   2    -70.8144322 -0.144479E-05  0.255E-02    4.35       1.0  T
   3    -70.8144322 -0.170656E-07  0.322E-03    4.35       4.4  T
   4    -70.8144324 -0.212427E-06  0.109E-03    4.35      13.0  T
   5    -70.8144324 -0.126894E-07  0.586E-04    4.35      24.4  T
   6    -70.8144324 -0.320586E-08  0.214E-04    4.35      66.7  T
     SCC iter.                  ...        0 min,  0.011 sec
     gradient                   ...        0 min,  0.020 sec
 * total energy  :   -69.8889391 Eh     change       -0.1293157E-03 Eh
   gradient norm :     0.0072604 Eh/α   predicted    -0.1045240E-03 ( -19.17%)
   displ. norm   :     0.3174429 α      lambda       -0.2799947E-03
   maximum displ.:     0.1642852 α      in ANC's #2, #3, #4, ...

........................................................................
.............................. CYCLE   41 ..............................
........................................................................

 iter      E             dE          RMSdq      gap      omega  full diag
   1    -70.8194991 -0.708195E+02  0.542E-02    4.35       0.0  T
   2    -70.8195095 -0.104160E-04  0.310E-02    4.35       1.0  T
   3    -70.8195096 -0.116999E-06  0.104E-02    4.35       1.4  T
   4    -70.8195103 -0.656742E-06  0.147E-03    4.35       9.7  T
   5    -70.8195103 -0.372986E-07  0.759E-04    4.35      18.8  T
   6    -70.8195103 -0.572483E-08  0.327E-04    4.35      43.8  T
     SCC iter.                  ...        0 min,  0.011 sec
     gradient                   ...        0 min,  0.020 sec
 * total energy  :   -69.8891048 Eh     change       -0.1657664E-03 Eh
   gradient norm :     0.0061413 Eh/α   predicted    -0.1541071E-03 (  -7.03%)
   displ. norm   :     0.6700189 α      lambda       -0.2390848E-03
   maximum displ.:     0.3870972 α      in ANC's #2, #4, #5, ...

........................................................................
.............................. CYCLE   42 ..............................
........................................................................

 iter      E             dE          RMSdq      gap      omega  full diag
   1    -70.8165557 -0.708166E+02  0.975E-02    4.36       0.0  T
   2    -70.8165586 -0.294112E-05  0.569E-02    4.36       1.0  T
   3    -70.8165588 -0.205507E-06  0.457E-03    4.36       3.1  T
   4    -70.8165594 -0.520941E-06  0.179E-03    4.36       8.0  T
   5    -70.8165594 -0.150691E-07  0.935E-04    4.36      15.3  T
   6    -70.8165594 -0.628276E-08  0.320E-04    4.36      44.7  T
     SCC iter.                  ...        0 min,  0.011 sec
     gradient                   ...        0 min,  0.020 sec
 * total energy  :   -69.8892855 Eh     change       -0.1806656E-03 Eh
   gradient norm :     0.0071166 Eh/α   predicted    -0.1732105E-03 (  -4.13%)
   displ. norm   :     0.4529257 α      lambda       -0.2936941E-03
   maximum displ.:     0.2355559 α      in ANC's #2, #4, #10, ...
 * RMSD in coord.:     1.0404497 α      energy gain  -0.2386587E-02 Eh

generating ANC from exact Hessian ...
Using Lindh-Hessian (1995)
 Shifting diagonal of input Hessian by    9.7591626917694699E-003
 Lowest  eigenvalues of input Hessian
    0.000000    0.000000    0.000000    0.000000    0.000000    0.000000
    0.010000    0.010130    0.010344    0.010600    0.010839    0.011163
    0.011238    0.012399    0.013263    0.013845    0.014236    0.015701
 Highest eigenvalues
    1.882600    1.908175    2.014887    2.037965    2.283411    2.317805


........................................................................
.............................. CYCLE   43 ..............................
........................................................................

 iter      E             dE          RMSdq      gap      omega  full diag
   1    -70.8227820 -0.708228E+02  0.689E-02    4.36       0.0  T
   2    -70.8227880 -0.598394E-05  0.405E-02    4.37       1.0  T
   3    -70.8227860  0.199552E-05  0.102E-02    4.37       1.4  T
   4    -70.8227893 -0.329710E-05  0.179E-03    4.37       8.0  T
   5    -70.8227893 -0.154452E-07  0.735E-04    4.37      19.4  T
   6    -70.8227893 -0.183556E-08  0.361E-04    4.37      39.6  T
     SCC iter.                  ...        0 min,  0.011 sec
     gradient                   ...        0 min,  0.020 sec
 * total energy  :   -69.8894001 Eh     change       -0.1145591E-03 Eh
   gradient norm :     0.0099952 Eh/α   predicted     0.0000000E+00 (-100.00%)
   displ. norm   :     0.0716254 α      lambda       -0.2296549E-03
   maximum displ.:     0.0336249 α      in ANC's #11, #5, #8, ...

........................................................................
.............................. CYCLE   44 ..............................
........................................................................

 iter      E             dE          RMSdq      gap      omega  full diag
   1    -70.8223245 -0.708223E+02  0.243E-02    4.36       0.0  T
   2    -70.8223264 -0.192556E-05  0.143E-02    4.36       1.0  T
   3    -70.8223263  0.635419E-07  0.473E-03    4.36       3.0  T
   4    -70.8223266 -0.326902E-06  0.872E-04    4.36      16.4  T
   5    -70.8223267 -0.863224E-08  0.449E-04    4.36      31.8  T
     SCC iter.                  ...        0 min,  0.009 sec
     gradient                   ...        0 min,  0.020 sec
 * total energy  :   -69.8895598 Eh     change       -0.1597552E-03 Eh
   gradient norm :     0.0025838 Eh/α   predicted    -0.1193243E-03 ( -25.31%)
   displ. norm   :     0.1147006 α      lambda       -0.1198128E-03
   maximum displ.:     0.0617155 α      in ANC's #5, #11, #8, ...

........................................................................
.............................. CYCLE   45 ..............................
........................................................................

 iter      E             dE          RMSdq      gap      omega  full diag
   1    -70.8221566 -0.708222E+02  0.247E-02    4.36       0.0  T
   2    -70.8221572 -0.560326E-06  0.144E-02    4.36       1.0  T
   3    -70.8221571  0.385419E-07  0.248E-03    4.36       5.8  T
   4    -70.8221573 -0.159080E-06  0.700E-04    4.36      20.4  T
   5    -70.8221573 -0.246756E-08  0.349E-04    4.36      40.9  T
     SCC iter.                  ...        0 min,  0.009 sec
     gradient                   ...        0 min,  0.020 sec
 * total energy  :   -69.8896483 Eh     change       -0.8846845E-04 Eh
   gradient norm :     0.0030846 Eh/α   predicted    -0.6072458E-04 ( -31.36%)
   displ. norm   :     0.1876281 α      lambda       -0.1247228E-03
   maximum displ.:     0.1040500 α      in ANC's #5, #11, #8, ...

........................................................................
.............................. CYCLE   46 ..............................
........................................................................

 iter      E             dE          RMSdq      gap      omega  full diag
   1    -70.8217661 -0.708218E+02  0.365E-02    4.36       0.0  T
   2    -70.8217666 -0.566722E-06  0.213E-02    4.36       1.0  T
   3    -70.8217667 -0.693297E-07  0.210E-03    4.36       6.8  T
   4    -70.8217668 -0.103690E-06  0.873E-04    4.36      16.4  T
   5    -70.8217668 -0.137470E-08  0.352E-04    4.36      40.6  T
     SCC iter.                  ...        0 min,  0.009 sec
     gradient                   ...        0 min,  0.020 sec
 * total energy  :   -69.8897472 Eh     change       -0.9895630E-04 Eh
   gradient norm :     0.0051841 Eh/α   predicted    -0.6456489E-04 ( -34.75%)
   displ. norm   :     0.2745892 α      lambda       -0.1531248E-03
   maximum displ.:     0.1539528 α      in ANC's #5, #11, #10, ...

........................................................................
.............................. CYCLE   47 ..............................
........................................................................

 iter      E             dE          RMSdq      gap      omega  full diag
   1    -70.8209437 -0.708209E+02  0.500E-02    4.36       0.0  T
   2    -70.8209457 -0.195192E-05  0.293E-02    4.36       1.0  T
   3    -70.8209456  0.338473E-07  0.410E-03    4.36       3.5  T
   4    -70.8209460 -0.405498E-06  0.119E-03    4.36      12.0  T
   5    -70.8209460 -0.539487E-08  0.565E-04    4.36      25.3  T
   6    -70.8209460 -0.323321E-08  0.170E-04    4.36      83.9  T
     SCC iter.                  ...        0 min,  0.011 sec
     gradient                   ...        0 min,  0.020 sec
 * total energy  :   -69.8898661 Eh     change       -0.1188237E-03 Eh
   gradient norm :     0.0050656 Eh/α   predicted    -0.8233559E-04 ( -30.71%)
   displ. norm   :     0.2869640 α      lambda       -0.1367699E-03
   maximum displ.:     0.1659608 α      in ANC's #5, #10, #6, ...

........................................................................
.............................. CYCLE   48 ..............................
........................................................................

 iter      E             dE          RMSdq      gap      omega  full diag
   1    -70.8205593 -0.708206E+02  0.485E-02    4.36       0.0  T
   2    -70.8205620 -0.268189E-05  0.285E-02    4.36       1.0  T
   3    -70.8205618  0.197217E-06  0.513E-03    4.36       2.8  T
   4    -70.8205624 -0.596016E-06  0.116E-03    4.36      12.3  T
   5    -70.8205624 -0.101606E-07  0.602E-04    4.36      23.7  T
   6    -70.8205624 -0.254923E-08  0.191E-04    4.36      74.7  T
     SCC iter.                  ...        0 min,  0.011 sec
     gradient                   ...        0 min,  0.020 sec
 * total energy  :   -69.8899712 Eh     change       -0.1050907E-03 Eh
   gradient norm :     0.0036668 Eh/α   predicted    -0.7401702E-04 ( -29.57%)
   displ. norm   :     0.2758787 α      lambda       -0.1321660E-03
   maximum displ.:     0.1636505 α      in ANC's #5, #10, #6, ...

........................................................................
.............................. CYCLE   49 ..............................
........................................................................

 iter      E             dE          RMSdq      gap      omega  full diag
   1    -70.8211367 -0.708211E+02  0.431E-02    4.36       0.0  T
   2    -70.8211385 -0.178070E-05  0.254E-02    4.36       1.0  T
   3    -70.8211383  0.262405E-06  0.444E-03    4.36       3.2  T
   4    -70.8211388 -0.550171E-06  0.971E-04    4.36      14.7  T
   5    -70.8211388 -0.821760E-08  0.516E-04    4.36      27.7  T
     SCC iter.                  ...        0 min,  0.009 sec
     gradient                   ...        0 min,  0.020 sec
 * total energy  :   -69.8900794 Eh     change       -0.1082376E-03 Eh
   gradient norm :     0.0037740 Eh/α   predicted    -0.7111676E-04 ( -34.30%)
   displ. norm   :     0.3595889 α      lambda       -0.1887570E-03
   maximum displ.:     0.2150782 α      in ANC's #5, #10, #6, ...

........................................................................
.............................. CYCLE   50 ..............................
........................................................................

 iter      E             dE          RMSdq      gap      omega  full diag
   1    -70.8220278 -0.708220E+02  0.546E-02    4.36       0.0  T
   2    -70.8220290 -0.118404E-05  0.321E-02    4.36       1.0  T
   3    -70.8220287  0.238001E-06  0.395E-03    4.36       3.6  T
   4    -70.8220293 -0.552718E-06  0.111E-03    4.36      12.8  T
   5    -70.8220293 -0.396658E-08  0.537E-04    4.36      26.6  T
   6    -70.8220293 -0.332147E-08  0.200E-04    4.36      71.6  T
     SCC iter.                  ...        0 min,  0.011 sec
     gradient                   ...        0 min,  0.020 sec
 * total energy  :   -69.8902356 Eh     change       -0.1562126E-03 Eh
   gradient norm :     0.0058793 Eh/α   predicted    -0.1065824E-03 ( -31.77%)
   displ. norm   :     0.4479158 α      lambda       -0.2426913E-03
   maximum displ.:     0.2716371 α      in ANC's #5, #10, #6, ...

........................................................................
.............................. CYCLE   51 ..............................
........................................................................

 iter      E             dE          RMSdq      gap      omega  full diag
   1    -70.8221433 -0.708221E+02  0.694E-02    4.36       0.0  T
   2    -70.8221451 -0.181092E-05  0.406E-02    4.36       1.0  T
   3    -70.8221450  0.113241E-06  0.440E-03    4.36       3.2  T
   4    -70.8221456 -0.552084E-06  0.144E-03    4.36       9.9  T
   5    -70.8221456 -0.132618E-07  0.807E-04    4.36      17.7  T
   6    -70.8221456 -0.120030E-07  0.232E-04    4.36      61.7  T
     SCC iter.                  ...        0 min,  0.011 sec
     gradient                   ...        0 min,  0.020 sec
 * total energy  :   -69.8904316 Eh     change       -0.1959376E-03 Eh
   gradient norm :     0.0069441 Eh/α   predicted    -0.1456991E-03 ( -25.64%)
   displ. norm   :     0.4273619 α      lambda       -0.2479923E-03
   maximum displ.:     0.2636855 α      in ANC's #5, #2, #10, ...

........................................................................
.............................. CYCLE   52 ..............................
........................................................................

 iter      E             dE          RMSdq      gap      omega  full diag
   1    -70.8227924 -0.708228E+02  0.688E-02    4.36       0.0  T
   2    -70.8227970 -0.462626E-05  0.398E-02    4.36       1.0  T
   3    -70.8227967  0.322796E-06  0.723E-03    4.36       2.0  T
   4    -70.8227977 -0.932935E-06  0.158E-03    4.36       9.0  T
   5    -70.8227977 -0.363287E-07  0.901E-04    4.36      15.9  T
   6    -70.8227977 -0.127685E-07  0.287E-04    4.36      49.7  T
     SCC iter.                  ...        0 min,  0.011 sec
     gradient                   ...        0 min,  0.020 sec
 * total energy  :   -69.8906247 Eh     change       -0.1931303E-03 Eh
   gradient norm :     0.0058965 Eh/α   predicted    -0.1466429E-03 ( -24.07%)
   displ. norm   :     0.4485377 α      lambda       -0.2179479E-03
   maximum displ.:     0.2889458 α      in ANC's #5, #2, #10, ...

........................................................................
.............................. CYCLE   53 ..............................
........................................................................

 iter      E             dE          RMSdq      gap      omega  full diag
   1    -70.8206666 -0.708207E+02  0.727E-02    4.36       0.0  T
   2    -70.8206727 -0.600844E-05  0.420E-02    4.35       1.0  T
   3    -70.8206721  0.557668E-06  0.845E-03    4.35       1.7  T
   4    -70.8206734 -0.131515E-05  0.170E-03    4.35       8.4  T
   5    -70.8206735 -0.506347E-07  0.952E-04    4.35      15.0  T
   6    -70.8206735 -0.113777E-07  0.340E-04    4.35      42.1  T
     SCC iter.                  ...        0 min,  0.011 sec
     gradient                   ...        0 min,  0.020 sec
 * total energy  :   -69.8907929 Eh     change       -0.1682386E-03 Eh
   gradient norm :     0.0048861 Eh/α   predicted    -0.1308984E-03 ( -22.19%)
   displ. norm   :     0.4124206 α      lambda       -0.2762447E-03
   maximum displ.:     0.2559792 α      in ANC's #5, #2, #3, ...

........................................................................
.............................. CYCLE   54 ..............................
........................................................................

 iter      E             dE          RMSdq      gap      omega  full diag
   1    -70.8253412 -0.708253E+02  0.714E-02    4.35       0.0  T
   2    -70.8253518 -0.105940E-04  0.409E-02    4.35       1.0  T
   3    -70.8253516  0.224653E-06  0.110E-02    4.34       1.3  T
   4    -70.8253528 -0.118056E-05  0.206E-03    4.34       6.9  T
   5    -70.8253529 -0.967548E-07  0.111E-03    4.35      12.9  T
   6    -70.8253529 -0.168363E-07  0.416E-04    4.35      34.4  T
   7    -70.8253529 -0.257302E-08  0.150E-04    4.35      95.5  T
     SCC iter.                  ...        0 min,  0.013 sec
     gradient                   ...        0 min,  0.020 sec
 * total energy  :   -69.8909164 Eh     change       -0.1235204E-03 Eh
   gradient norm :     0.0063559 Eh/α   predicted    -0.1616163E-03 (  30.84%)
   displ. norm   :     0.4968809 α      lambda       -0.2390761E-03
   maximum displ.:     0.3311273 α      in ANC's #5, #2, #10, ...

........................................................................
.............................. CYCLE   55 ..............................
........................................................................

 iter      E             dE          RMSdq      gap      omega  full diag
   1    -70.8182365 -0.708182E+02  0.809E-02    4.35       0.0  T
   2    -70.8182412 -0.473296E-05  0.471E-02    4.34       1.0  T
   3    -70.8182407  0.535984E-06  0.685E-03    4.34       2.1  T
   4    -70.8182420 -0.127983E-05  0.197E-03    4.34       7.3  T
   5    -70.8182420 -0.542976E-07  0.110E-03    4.34      13.0  T
   6    -70.8182420 -0.903401E-08  0.432E-04    4.34      33.1  T
   7    -70.8182420 -0.498470E-08  0.129E-04    4.34     110.4  T
     SCC iter.                  ...        0 min,  0.013 sec
     gradient                   ...        0 min,  0.020 sec
 * total energy  :   -69.8910194 Eh     change       -0.1029711E-03 Eh
   gradient norm :     0.0087072 Eh/α   predicted    -0.1490546E-03 (  44.75%)
   displ. norm   :     0.0928445 α      lambda       -0.1277812E-03
   maximum displ.:     0.0383946 α      in ANC's #9, #5, #10, ...

........................................................................
.............................. CYCLE   56 ..............................
........................................................................

 iter      E             dE          RMSdq      gap      omega  full diag
   1    -70.8215584 -0.708216E+02  0.208E-02    4.34       0.0  T
   2    -70.8215595 -0.109710E-05  0.118E-02    4.34       1.2  T
   3    -70.8215594  0.525304E-07  0.343E-03    4.34       4.2  T
   4    -70.8215596 -0.188531E-06  0.697E-04    4.34      20.5  T
   5    -70.8215596 -0.520929E-08  0.362E-04    4.34      39.5  T
     SCC iter.                  ...        0 min,  0.009 sec
     gradient                   ...        0 min,  0.020 sec
 * total energy  :   -69.8911088 Eh     change       -0.8938738E-04 Eh
   gradient norm :     0.0049984 Eh/α   predicted    -0.6445532E-04 ( -27.89%)
   displ. norm   :     0.2450615 α      lambda       -0.1469968E-03
   maximum displ.:     0.1583218 α      in ANC's #5, #2, #3, ...

........................................................................
.............................. CYCLE   57 ..............................
........................................................................

 iter      E             dE          RMSdq      gap      omega  full diag
   1    -70.8239291 -0.708239E+02  0.412E-02    4.35       0.0  T
   2    -70.8239297 -0.659476E-06  0.242E-02    4.34       1.0  T
   3    -70.8239297  0.149206E-07  0.254E-03    4.34       5.6  T
   4    -70.8239299 -0.207885E-06  0.115E-03    4.34      12.4  T
   5    -70.8239299 -0.175254E-07  0.543E-04    4.34      26.3  T
   6    -70.8239299 -0.372457E-08  0.172E-04    4.34      83.2  T
     SCC iter.                  ...        0 min,  0.011 sec
     gradient                   ...        0 min,  0.020 sec
 * total energy  :   -69.8912144 Eh     change       -0.1055854E-03 Eh
   gradient norm :     0.0033734 Eh/α   predicted    -0.7791613E-04 ( -26.21%)
   displ. norm   :     0.3508085 α      lambda       -0.1112830E-03
   maximum displ.:     0.2364217 α      in ANC's #5, #2, #3, ...

........................................................................
.............................. CYCLE   58 ..............................
........................................................................

 iter      E             dE          RMSdq      gap      omega  full diag
   1    -70.8231497 -0.708231E+02  0.575E-02    4.34       0.0  T
   2    -70.8231508 -0.103264E-05  0.339E-02    4.34       1.0  T
   3    -70.8231507  0.626919E-07  0.347E-03    4.34       4.1  T
   4    -70.8231511 -0.409764E-06  0.141E-03    4.34      10.1  T
   5    -70.8231511 -0.109532E-07  0.727E-04    4.34      19.6  T
   6    -70.8231511 -0.113856E-07  0.203E-04    4.34      70.2  T
     SCC iter.                  ...        0 min,  0.011 sec
     gradient                   ...        0 min,  0.020 sec
 * total energy  :   -69.8912965 Eh     change       -0.8206626E-04 Eh
   gradient norm :     0.0034344 Eh/α   predicted    -0.6249078E-04 ( -23.85%)
   displ. norm   :     0.3031153 α      lambda       -0.9716092E-04
   maximum displ.:     0.1932701 α      in ANC's #5, #2, #1, ...

........................................................................
.............................. CYCLE   59 ..............................
........................................................................

 iter      E             dE          RMSdq      gap      omega  full diag
   1    -70.8231320 -0.708231E+02  0.512E-02    4.34       0.0  T
   2    -70.8231328 -0.815933E-06  0.300E-02    4.34       1.0  T
   3    -70.8231328  0.947586E-07  0.337E-03    4.34       4.2  T
   4    -70.8231332 -0.403438E-06  0.128E-03    4.34      11.2  T
   5    -70.8231332 -0.264833E-08  0.607E-04    4.34      23.5  T
   6    -70.8231332 -0.970050E-08  0.192E-04    4.34      74.5  T
     SCC iter.                  ...        0 min,  0.011 sec
     gradient                   ...        0 min,  0.020 sec
 * total energy  :   -69.8913646 Eh     change       -0.6817331E-04 Eh
   gradient norm :     0.0034898 Eh/α   predicted    -0.5304437E-04 ( -22.19%)
   displ. norm   :     0.2572402 α      lambda       -0.8791935E-04
   maximum displ.:     0.1431773 α      in ANC's #5, #2, #1, ...

........................................................................
.............................. CYCLE   60 ..............................
........................................................................

 iter      E             dE          RMSdq      gap      omega  full diag
   1    -70.8227164 -0.708227E+02  0.434E-02    4.33       0.0  T
   2    -70.8227171 -0.727881E-06  0.255E-02    4.33       1.0  T
[...]
          :  # basis functions                 118          :
          :  # atomic orbitals                 118          :
          :  # shells                           72          :
          :  # electrons                       126          :
          :  max. iterations                   250          :
          :  Hamiltonian                  GFN2-xTB          :
          :  restarted?                      false          :
          :  GBSA solvation                  false          :
          :  PC potential                    false          :
          :  electronic temp.          300.0000000     K    :
          :  accuracy                    1.0000000          :
          :  -> integral cutoff          0.2500000E+02      :
          :  -> integral neglect         0.1000000E-07      :
          :  -> SCF convergence          0.1000000E-05 Eh   :
          :  -> wf. convergence          0.1000000E-03 e    :
          :  Broyden damping             0.4000000          :
          :  net charge                          0          :
          :  unpaired electrons                  0          :
          ...................................................

 iter      E             dE          RMSdq      gap      omega  full diag
   1    -70.8242381 -0.708242E+02  0.130E-04    4.34       0.0  T
   2    -70.8242381 -0.137618E-09  0.829E-05    4.34     172.3  T
   3    -70.8242381 -0.838298E-10  0.528E-05    4.34     270.7  T

   *** convergence criteria satisfied after 3 iterations ***

         #    Occupation            Energy/Eh            Energy/eV
      -------------------------------------------------------------
         1        2.0000           -0.6951666             -18.9164
       ...           ...                  ...                  ...
        57        2.0000           -0.4105989             -11.1730
        58        2.0000           -0.3949014             -10.7458
        59        2.0000           -0.3937952             -10.7157
        60        2.0000           -0.3921668             -10.6714
        61        2.0000           -0.3864946             -10.5171
        62        2.0000           -0.3805625             -10.3556
        63        2.0000           -0.3728082             -10.1446 (HOMO)
        64                         -0.2134435              -5.8081 (LUMO)
        65                         -0.2111225              -5.7449
        66                         -0.2089395              -5.6855
        67                         -0.2045596              -5.5663
        68                         -0.0832230              -2.2646
       ...                                ...                  ...
       118                          0.6742607              18.3476
      -------------------------------------------------------------
                  HL-Gap            0.1593647 Eh            4.3365 eV
             Fermi-level           -0.2931258 Eh           -7.9764 eV

 SCC (total)                   0 d,  0 h,  0 min,  0.033 sec
 SCC setup                      ...        0 min,  0.000 sec (  0.537%)
 Dispersion                     ...        0 min,  0.000 sec (  0.853%)
 classical contributions        ...        0 min,  0.000 sec (  0.405%)
 integral evaluation            ...        0 min,  0.006 sec ( 18.837%)
 iterations                     ...        0 min,  0.006 sec ( 17.133%)
 molecular gradient             ...        0 min,  0.021 sec ( 61.811%)
 printout                       ...        0 min,  0.000 sec (  0.394%)

         :::::::::::::::::::::::::::::::::::::::::::::::::::::
         ::                     SUMMARY                     ::
         :::::::::::::::::::::::::::::::::::::::::::::::::::::
         :: total energy             -69.892025495255 Eh    ::
         :: gradient norm              0.000462406638 Eh/a0 ::
         :: HOMO-LUMO gap              4.336533451196 eV    ::
         ::.................................................::
         :: SCC energy               -70.823405404136 Eh    ::
         :: -> isotropic ES            0.098002540249 Eh    ::
         :: -> anisotropic ES          0.003529563921 Eh    ::
         :: -> anisotropic XC          0.025445063436 Eh    ::
         :: -> dispersion             -0.049492304389 Eh    ::
         :: repulsion energy           0.931379908881 Eh    ::
         :: add. restraining           0.000000000000 Eh    ::
         :: total charge               0.000000000000 e     ::
         :::::::::::::::::::::::::::::::::::::::::::::::::::::

           -------------------------------------------------
          |                Property Printout                |
           -------------------------------------------------

    * Orbital Energies and Occupations

         #    Occupation            Energy/Eh            Energy/eV
      -------------------------------------------------------------
         1        2.0000           -0.6951666             -18.9164
       ...           ...                  ...                  ...
        51        2.0000           -0.4520121             -12.2999
        52        2.0000           -0.4493991             -12.2288
        53        2.0000           -0.4375023             -11.9050
        54        2.0000           -0.4326528             -11.7731
        55        2.0000           -0.4190499             -11.4029
        56        2.0000           -0.4145898             -11.2816
        57        2.0000           -0.4105989             -11.1730
        58        2.0000           -0.3949014             -10.7458
        59        2.0000           -0.3937952             -10.7157
        60        2.0000           -0.3921668             -10.6714
        61        2.0000           -0.3864946             -10.5171
        62        2.0000           -0.3805625             -10.3556
        63        2.0000           -0.3728082             -10.1446 (HOMO)
        64                         -0.2134435              -5.8081 (LUMO)
        65                         -0.2111225              -5.7449
        66                         -0.2089395              -5.6855
        67                         -0.2045596              -5.5663
        68                         -0.0832230              -2.2646
        69                         -0.0218270              -0.5939
        70                          0.0000970               0.0026
        71                          0.0190328               0.5179
        72                          0.0400957               1.0911
        73                          0.0500790               1.3627
        74                          0.0702873               1.9126
       ...                                ...                  ...
       118                          0.6742607              18.3476
      -------------------------------------------------------------
                  HL-Gap            0.1593647 Eh            4.3365 eV
             Fermi-level           -0.2931258 Eh           -7.9764 eV

     #   Z          covCN         q      C6AA      α(0)
     1   6 C        3.753    -0.134    23.133     6.858
     2   6 C        2.767     0.268    22.468     7.763
     3   8 O        0.860    -0.463    22.985     6.428
     4   7 N        2.735    -0.102    23.242     7.160
     5   6 C        3.802     0.018    20.278     6.411
     6   6 C        3.767     0.102    18.938     6.202
     7   8 O        1.701    -0.320    19.339     5.937
     8   6 C        3.706     0.083    19.347     6.288
     9   6 C        2.969     0.008    27.830     8.653
    10   6 C        2.923    -0.032    28.804     8.801
    11   6 C        2.920    -0.030    28.757     8.794
    12   6 C        2.920    -0.034    28.848     8.808
    13   6 C        2.919    -0.030    28.748     8.792
    14   6 C        2.925    -0.040    29.003     8.832
    15   6 C        3.825    -0.069    21.794     6.643
    16   6 C        3.820    -0.060    21.631     6.619
    17   6 C        3.819    -0.070    21.828     6.649
    18   6 C        3.758    -0.019    20.963     6.528
    19   6 C        2.764     0.263    22.564     7.779
    20   8 O        0.859    -0.465    23.029     6.434
    21   7 N        2.730    -0.071    22.612     7.062
    22   6 C        3.694    -0.063    21.902     6.695
    23   6 C        3.705    -0.051    21.639     6.650
    24   1 H        0.925     0.070     2.089     2.260
    25   1 H        0.925     0.054     2.272     2.357
    26   1 H        0.925     0.057     2.234     2.337
    27   1 H        0.925     0.062     2.178     2.308
    28   1 H        0.924     0.054     2.268     2.355
    29   1 H        0.923     0.052     2.297     2.370
    30   1 H        0.923     0.022     2.701     2.570
    31   1 H        0.926     0.050     2.320     2.382
    32   1 H        0.926     0.030     2.588     2.516
    33   1 H        0.926     0.029     2.607     2.525
    34   1 H        0.926     0.030     2.586     2.515
    35   1 H        0.926     0.029     2.597     2.520
    36   1 H        0.925     0.045     2.381     2.413
    37   1 H        0.924     0.054     2.272     2.357
    38   1 H        0.924     0.032     2.557     2.500
    39   1 H        0.925     0.041     2.441     2.443
    40   1 H        0.925     0.040     2.452     2.449
    41   1 H        0.925     0.042     2.419     2.432
    42   1 H        0.925     0.066     2.131     2.283
    43   1 H        0.925     0.061     2.192     2.315
    44   1 H        0.924     0.045     2.388     2.416
    45   1 H        0.924     0.094     1.839     2.121
    46   1 H        0.925     0.064     2.158     2.297
    47   1 H        0.925     0.087     1.907     2.159
    48   1 H        0.924     0.049     2.333     2.389
    49   1 H        0.924     0.054     2.266     2.354

 Mol. C6AA /au·bohr⁶  :      22627.821828
 Mol. C8AA /au·bohr⁸  :     511283.666230
 Mol. α(0) /au        :        228.733174


Wiberg/Mayer (AO) data.
largest (>0.10) Wiberg bond orders for each atom

 ---------------------------------------------------------------------------
     #   Z sym  total        # sym  WBO       # sym  WBO       # sym  WBO
 ---------------------------------------------------------------------------
     1   6 C    3.994 --     2 C    0.986    24 H    0.982    25 H    0.969
                            26 H    0.966
     2   6 C    3.951 --     3 O    1.649     4 N    1.249     1 C    0.986
     3   8 O    1.977 --     2 C    1.649     4 N    0.188
     4   7 N    3.497 --     2 C    1.249     5 C    0.985    18 C    0.981
                             3 O    0.188
     5   6 C    3.965 --     4 N    0.985    17 C    0.978    27 H    0.958
                             6 C    0.952
     6   6 C    3.950 --    15 C    0.987     7 O    0.983     5 C    0.952
                            28 H    0.949
     7   8 O    2.080 --     6 C    0.983     8 C    0.980
     8   6 C    3.951 --     9 C    1.004     7 O    0.980    30 H    0.954
                            29 H    0.949
     9   6 C    3.987 --    10 C    1.419    14 C    1.404     8 C    1.004
                            12 C    0.109
    10   6 C    3.991 --    11 C    1.438     9 C    1.419    31 H    0.967
                            13 C    0.110
    11   6 C    3.993 --    12 C    1.445    10 C    1.438    32 H    0.971
                            14 C    0.112
    12   6 C    3.993 --    11 C    1.445    13 C    1.430    33 H    0.972
                             9 C    0.109
    13   6 C    3.992 --    14 C    1.455    12 C    1.430    34 H    0.971
                            10 C    0.110
    14   6 C    3.991 --    13 C    1.455     9 C    1.404    35 H    0.970
                            11 C    0.112
    15   6 C    3.994 --    16 C    1.009     6 C    0.987    36 H    0.978
                            37 H    0.976
    16   6 C    3.997 --    15 C    1.009    17 C    1.006    39 H    0.979
                            38 H    0.977
    17   6 C    3.996 --    16 C    1.006    41 H    0.981     5 C    0.978
                            40 H    0.978
    18   6 C    3.974 --     4 N    0.981    43 H    0.964    42 H    0.956
                            19 C    0.944
    19   6 C    3.957 --    20 O    1.633    21 N    1.293    18 C    0.944
    20   8 O    1.979 --    19 C    1.633    21 N    0.202
    21   7 N    3.526 --    19 C    1.293    22 C    0.996    23 C    0.995
                            20 O    0.202
    22   6 C    3.963 --    21 N    0.996    46 H    0.981    44 H    0.977
                            45 H    0.962
    23   6 C    3.964 --    21 N    0.995    48 H    0.978    49 H    0.976
                            47 H    0.973
    24   1 H    0.995 --     1 C    0.982
    25   1 H    0.997 --     1 C    0.969
    26   1 H    0.997 --     1 C    0.966
    27   1 H    0.996 --     5 C    0.958
    28   1 H    0.997 --     6 C    0.949
    29   1 H    0.997 --     8 C    0.949
    30   1 H    0.999 --     8 C    0.954
    31   1 H    0.998 --    10 C    0.967
    32   1 H    0.999 --    11 C    0.971
    33   1 H    0.999 --    12 C    0.972
    34   1 H    0.999 --    13 C    0.971
    35   1 H    0.999 --    14 C    0.970
    36   1 H    0.998 --    15 C    0.978
    37   1 H    0.997 --    15 C    0.976
    38   1 H    0.999 --    16 C    0.977
    39   1 H    0.997 --    16 C    0.979
    40   1 H    0.998 --    17 C    0.978
    41   1 H    0.998 --    17 C    0.981
    42   1 H    0.995 --    18 C    0.956
    43   1 H    0.996 --    18 C    0.964
    44   1 H    0.998 --    22 C    0.977
    45   1 H    0.991 --    22 C    0.962
    46   1 H    0.996 --    22 C    0.981
    47   1 H    0.992 --    23 C    0.973
    48   1 H    0.998 --    23 C    0.978
    49   1 H    0.997 --    23 C    0.976
 ---------------------------------------------------------------------------

Topologies differ in total number of bonds
Writing topology from bond orders to xtbtopo.mol

molecular dipole:
                 x           y           z       tot (Debye)
 q only:       -0.991      -0.320       0.440
   full:       -1.197      -0.239       0.628       3.489
molecular quadrupole (traceless):
                xx          xy          yy          xz          yz          zz
 q only:      -12.290       8.021       5.098       3.836     -17.581       7.192
  q+dip:      -13.684      11.823       5.253       5.929     -21.559       8.431
   full:      -13.410      11.288       6.638       5.325     -20.465       6.772

           -------------------------------------------------
          |                Geometry Summary                 |
           -------------------------------------------------

      molecular mass/u    :      318.4113269
   center of mass at/Å    :        3.6164679      -3.3935270       0.6891031
  moments of inertia/u·Å² :        0.1475088E+04   0.3104313E+04   0.3711127E+04
rotational constants/cm⁻¹ :        0.1142822E-01   0.5430391E-02   0.4542456E-02

 * 45 selected distances

     #   Z          #   Z                                           value/Å
     2   6 C        3   8 O                                       1.2210104
     2   6 C        4   7 N                                       1.3546714
     4   7 N        5   6 C                                       1.4482763
     6   6 C        7   8 O                                       1.4081624
     7   8 O        8   6 C                                       1.4114980
     9   6 C       10   6 C                                       1.3866956
    10   6 C       11   6 C                                       1.3847082
    11   6 C       12   6 C                                       1.3834867
    12   6 C       13   6 C                                       1.3856465
     9   6 C       14   6 C                                       1.3905705
    13   6 C       14   6 C                                       1.3821810
     6   6 C       15   6 C                                       1.5307996 (max)
    15   6 C       16   6 C                                       1.5234443
    16   6 C       17   6 C                                       1.5306879
     4   7 N       18   6 C                                       1.4571755
    19   6 C       20   8 O                                       1.2227178
    19   6 C       21   7 N                                       1.3425688
    21   7 N       22   6 C                                       1.4475598
    21   7 N       23   6 C                                       1.4467321
     1   6 C       24   1 H                                       1.0871334
     1   6 C       25   1 H                                       1.0878976
     1   6 C       26   1 H                                       1.0879969
     5   6 C       27   1 H                                       1.0890453
     6   6 C       28   1 H                                       1.0966172
     8   6 C       29   1 H                                       1.1005013
     8   6 C       30   1 H                                       1.1017467
    10   6 C       31   1 H                                       1.0783004 (min)
    11   6 C       32   1 H                                       1.0805887
    12   6 C       33   1 H                                       1.0802661
    13   6 C       34   1 H                                       1.0804863
    14   6 C       35   1 H                                       1.0809270
    15   6 C       36   1 H                                       1.0878451
    15   6 C       37   1 H                                       1.0904250
    16   6 C       38   1 H                                       1.0916878
    16   6 C       39   1 H                                       1.0889603
    17   6 C       40   1 H                                       1.0896578
    17   6 C       41   1 H                                       1.0899176
    18   6 C       42   1 H                                       1.0899698
    18   6 C       43   1 H                                       1.0900317
    22   6 C       44   1 H                                       1.0928939
    22   6 C       45   1 H                                       1.0912266
    22   6 C       46   1 H                                       1.0873078
    23   6 C       47   1 H                                       1.0883231
    23   6 C       48   1 H                                       1.0918252
    23   6 C       49   1 H                                       1.0918617

 * 4 distinct bonds (by element types)

   Z      Z             #   av. dist./Å        max./Å        min./Å
   1 H    6 C          26     1.0889785     1.1017467     1.0783004
   6 C    6 C           9     1.4331356     1.5307996     1.3821810
   6 C    7 N           6     1.4161640     1.4571755     1.3425688
   6 C    8 O           4     1.3158472     1.4114980     1.2210104


optimized geometry written to: xtbopt.xyz


           -------------------------------------------------
          | TOTAL ENERGY              -69.892025495255 Eh   |
          | GRADIENT NORM               0.000462406638 Eh/α |
          | HOMO-LUMO GAP               4.336533451196 eV   |
           -------------------------------------------------

------------------------------------------------------------------------
 * finished run on 2026/01/25 at 20:06:44.026     
------------------------------------------------------------------------
 total:
 * wall-time:     0 d,  0 h,  0 min,  3.410 sec
 *  cpu-time:     0 d,  0 h,  0 min,  3.384 sec
 * ratio c/w:     0.992 speedup
Note: The following floating-point exceptions are signalling: IEEE_UNDERFLOW_FLAG IEEE_DENORMAL
normal termination of xtb
 SCF:
 * wall-time:     0 d,  0 h,  0 min,  0.050 sec
 *  cpu-time:     0 d,  0 h,  0 min,  0.050 sec
 * ratio c/w:     0.995 speedup
 ANC optimizer:
 * wall-time:     0 d,  0 h,  0 min,  3.340 sec
 *  cpu-time:     0 d,  0 h,  0 min,  3.324 sec
 * ratio c/w:     0.995 speedup

