49
 energy: -69.892025495255 gnorm: 0.000462406638 xtb: 6.7.1 (edcfbbe)
C            2.88885115771832       -0.59359004248912        1.84292077061953
C            2.63828127322108       -1.91379985277806        2.53721063743770
O            2.89736463936144       -2.06196143576072        3.72118283804785
N            2.09975820433227       -2.92860464491817        1.81936780695956
C            1.69196954840488       -2.85238345342803        0.43177903433288
C            2.35244235351048       -3.92380994711014       -0.48493649168435
O            3.41229069708638       -3.39349380700716       -1.24546731720432
C            4.65185622510363       -3.38070960349187       -0.57045603051921
C            5.75058583757572       -2.89705124841225       -1.47590421232047
C            5.51765523309334       -2.61321603181470       -2.81310475368108
C            6.55031168415121       -2.17489249821828       -3.62483725854310
C            7.82422599954935       -2.01776232447284       -3.10861285097047
C            8.06293743477774       -2.30048309594935       -1.77328449775989
C            7.03250456227079       -2.73617791521724       -0.96161827219259
C            1.22844539567249       -4.37502763143955       -1.42108839343486
C           -0.02884256161228       -4.29888107383068       -0.56416905465809
C            0.16468272687346       -3.01946493156536        0.25353956228146
C            1.84161220570478       -4.15705914439526        2.55938138469206
C            3.15467901799422       -4.89086035941498        2.86493708031478
O            3.86967012755378       -5.25214348096773        1.94119421784416
N            3.45670933705702       -5.15374522764733        4.14640493474389
C            2.69461709070875       -4.69960753729778        5.29025956279962
C            4.69106305287630       -5.84935112357622        4.43887161459043
H            3.32281961569083        0.08440446069749        2.57357366533094
H            1.95796714999923       -0.16671733611403        1.47583003866294
H            3.58448903039243       -0.70751967776942        1.01415968646851
H            2.00189773476166       -1.88245819387396        0.04550315984765
H            2.72044515877980       -4.76161505874122        0.11940256591531
H            4.88937948453164       -4.39161892593911       -0.20611006538803
H            4.59999292194866       -2.73161113845512        0.31826607115510
H            4.52213475907051       -2.74046800720182       -3.20741094826252
H            6.35815369654194       -1.95646800416148       -4.66552824953059
H            8.62998511911567       -1.67715529627428       -3.74242172372037
H            9.05588721697655       -2.18052322829678       -1.36449254239766
H            7.21757927483592       -2.95782818628126        0.08002540653407
H            1.41123357008822       -5.36862338498711       -1.82452706018396
H            1.17459505924903       -3.66770752750035       -2.24923377666020
H           -0.08493669058563       -5.17146029172742        0.08946766170578
H           -0.93755532707526       -4.26940366464374       -1.16350751439437
H           -0.34488755071437       -3.05991248139558        1.21585759005773
H           -0.23241753840152       -2.16752235643873       -0.29820799158145
H            1.24082238697959       -4.81677444348818        1.93339307156510
H            1.29262444975494       -3.91034980948572        3.46818055578036
H            1.72071418110786       -5.19303792704008        5.33982205918826
H            2.56500648931257       -3.61680643970587        5.25129717744779
H            3.24855994044098       -4.94847268620109        6.19217505508592
H            5.15488949268395       -6.13288941659551        3.49604715939298
H            4.48578762484787       -6.74567324334633        5.02755724512868
H            5.37156150675029       -5.19981132380757        4.99311139123405
