49
 energy: -69.870299883417 gnorm: 0.080342046757 xtb: 6.7.1 (edcfbbe)
C            2.05440000000000       -0.12510000000000        2.09860000000000
C            1.97150000000000       -1.41480000000000        2.88260000000000
O            1.73630000000000       -1.37510000000000        4.09200000000000
N            2.14190000000000       -2.61410000000000        2.19310000000000
C            2.42190000000000       -2.68530000000000        0.74140000000000
C            3.19720000000000       -3.91140000000000        0.20310000000000
O            3.91950000000000       -3.58310000000000       -0.99450000000000
C            5.08140000000000       -2.78570000000000       -0.77800000000000
C            5.82400000000000       -2.67320000000000       -2.08380000000000
C            5.15740000000000       -2.25180000000000       -3.24550000000000
C            5.84630000000000       -2.11320000000000       -4.45000000000000
C            7.21120000000000       -2.38760000000000       -4.50610000000000
C            7.88580000000000       -2.80400000000000       -3.35790000000000
C            7.19670000000000       -2.94460000000000       -2.15250000000000
C            2.12550000000000       -4.92430000000000       -0.23320000000000
C            0.79920000000000       -4.16680000000000       -0.28950000000000
C            1.14270000000000       -2.69770000000000       -0.10290000000000
C            1.97850000000000       -3.83770000000000        2.99070000000000
C            3.25890000000000       -4.36280000000000        3.67610000000000
O            4.35740000000000       -3.83840000000000        3.46440000000000
N            3.10960000000000       -5.47860000000000        4.50020000000000
C            1.84910000000000       -6.16190000000000        4.75900000000000
C            4.24050000000000       -5.93030000000000        5.29390000000000
H            1.84200000000000        0.71550000000000        2.76700000000000
H            1.30730000000000       -0.11290000000000        1.30140000000000
H            3.05830000000000        0.01730000000000        1.69260000000000
H            2.95950000000000       -1.77140000000000        0.48730000000000
H            3.89070000000000       -4.35940000000000        0.91960000000000
H            5.70980000000000       -3.23740000000000       -0.00220000000000
H            4.80330000000000       -1.77490000000000       -0.46310000000000
H            4.09050000000000       -2.03990000000000       -3.21150000000000
H            5.31720000000000       -1.79290000000000       -5.34450000000000
H            7.74870000000000       -2.27860000000000       -5.44340000000000
H            8.94950000000000       -3.01930000000000       -3.40340000000000
H            7.73780000000000       -3.27030000000000       -1.26690000000000
H            2.04690000000000       -5.75140000000000        0.48120000000000
H            2.35330000000000       -5.36650000000000       -1.21030000000000
H            0.13590000000000       -4.50710000000000        0.51320000000000
H            0.27480000000000       -4.33790000000000       -1.23520000000000
H            0.31510000000000       -2.13950000000000        0.34430000000000
H            1.35260000000000       -2.25480000000000       -1.08500000000000
H            1.56360000000000       -4.62240000000000        2.35870000000000
H            1.24670000000000       -3.63830000000000        3.78260000000000
H            1.05190000000000       -5.85980000000000        4.08070000000000
H            1.53990000000000       -5.95040000000000        5.78650000000000
H            2.00430000000000       -7.23890000000000        4.63970000000000
H            5.17350000000000       -5.43600000000000        5.01340000000000
H            4.35870000000000       -7.01100000000000        5.16460000000000
H            4.03170000000000       -5.71640000000000        6.34730000000000
49
 energy: -69.879777203286 gnorm: 0.023741331617 xtb: 6.7.1 (edcfbbe)
C            2.06359509482083       -0.15122711669088        2.09453072068392
C            1.99330258418236       -1.44639193681766        2.87636005160348
O            1.73377283655194       -1.43689352789466        4.06678793612107
N            2.16172326829267       -2.62799624509166        2.19298312751351
C            2.41625808211340       -2.67389313683125        0.74888766485297
C            3.18549292610670       -3.90373112039797        0.21385944964978
O            3.90702775004183       -3.56416065588119       -0.96980049709673
C            5.08018502743152       -2.78527416507664       -0.78123386640109
C            5.82613751608183       -2.67370253599549       -2.08731922613234
C            5.16390090338141       -2.25756434711476       -3.23939232579407
C            5.84749028456361       -2.12169174045709       -4.43713355739543
C            7.20566527871661       -2.39100599065397       -4.49679337341183
C            7.87461322136702       -2.80383848734050       -3.35564105202567
C            7.18818327369426       -2.94730198412870       -2.15925350353282
C            2.11807445107568       -4.92435789978138       -0.21947119231532
C            0.78009974165923       -4.17451979690472       -0.28355564607198
C            1.13186036147803       -2.70180057375441       -0.09663555614611
C            1.97707306895124       -3.84318493377699        2.97669661784844
C            3.25608550564077       -4.36403579801256        3.65328090202391
O            4.34294517785463       -3.85398880373307        3.45592009992773
N            3.10549870559813       -5.45349576796396        4.47266269900694
C            1.86190232264554       -6.14210973255865        4.75497232440303
C            4.22085948875451       -5.91565700703105        5.27712631561305
H            1.84426297171316        0.67150183964897        2.77618486566782
H            1.33147301573020       -0.13234564769445        1.28858610209670
H            3.06043546764295        0.00617099893148        1.68710095987101
H            2.98402129578920       -1.77354510197803        0.50864322135826
H            3.88578739230237       -4.32132412533454        0.94625480703857
H            5.71071647825137       -3.24209413483926       -0.00843817406487
H            4.81192349357339       -1.77268580038420       -0.44829140544085
H            4.10357559268503       -2.04738158374103       -3.19881648182037
H            5.32090160920998       -1.79813566538173       -5.32566692045561
H            7.74150692378585       -2.28020977095037       -5.43025645324344
H            8.93446868927287       -3.01655298440238       -3.39897114542369
H            7.72324778310126       -3.26821878444126       -1.27477328859596
H            2.06911109139245       -5.75916295702595        0.48335106187935
H            2.39045112892766       -5.33684400542159       -1.19337154970574
H            0.11383790046035       -4.50835731029809        0.51505840458781
H            0.26501611394481       -4.34244626224169       -1.23021728707044
H            0.31683807018839       -2.13835938488323        0.35817570647554
H            1.35501045426026       -2.25478895013507       -1.06924086182444
H            1.56270890713805       -4.62168578944462        2.33621506036231
H            1.25634666075198       -3.60860296626933        3.77024227591163
H            1.06826127976444       -5.84691836826934        4.07754302778096
H            1.54183900575881       -5.94208583967879        5.78161724228904
H            2.01825479980558       -7.21935940609441        4.64611036263844
H            5.13438878943967       -5.40780168740997        4.97576520621715
H            4.35172628162965       -6.99407177642292        5.14940165354242
H            4.03254193247664       -5.70897123194899        6.33575549700405
49
 energy: -69.881952531901 gnorm: 0.010848665380 xtb: 6.7.1 (edcfbbe)
C            2.07989524755154       -0.17476987698062        2.09844554477075
C            1.98685137393882       -1.47464289435698        2.87161871957042
O            1.72906571714841       -1.48395653935633        4.05875103861444
N            2.16826048337069       -2.64063412285666        2.18734555367217
C            2.40938231853398       -2.66821072363868        0.75307739465537
C            3.18740186275155       -3.89259478790989        0.22173367965978
O            3.90165588954881       -3.55312602278852       -0.95677528513210
C            5.08137819268884       -2.79120120708030       -0.77353168472908
C            5.82326714611838       -2.67961405479292       -2.08142167956142
C            5.16026342869455       -2.26506068161484       -3.22875280307244
C            5.84159882102780       -2.12724433858144       -4.42417391582107
C            7.19801863015371       -2.39459219970994       -4.48686368464247
C            7.86588353522946       -2.80680913519399       -3.34830143394802
C            7.18154936496382       -2.95219109767588       -2.15440711630193
C            2.12614329385342       -4.92090745681896       -0.20975440813735
C            0.78042035003506       -4.17899809683311       -0.27050625315353
C            1.12000725351167       -2.69976469364530       -0.08786478510407
C            1.96924798260650       -3.85384412031936        2.95532300968016
C            3.25087962647981       -4.36145484103159        3.62935565824114
O            4.33430791738153       -3.85781010422982        3.42697183836362
N            3.09823235610017       -5.43205393750773        4.44876611978270
C            1.86512202384563       -6.12073523473674        4.74703687854802
C            4.21254802474152       -5.89392238557185        5.24876675666214
H            1.85719709826195        0.63458976770874        2.79080015342209
H            1.36061735899763       -0.14942615957201        1.28335484915496
H            3.07785375214908       -0.01791759627510        1.69651390789887
H            2.98825942365145       -1.77418050320493        0.51916516746224
H            3.88856759325083       -4.28628857868491        0.97031353920442
H            5.71531554753406       -3.25729523686054       -0.00658596279644
H            4.83019485958730       -1.77395241496904       -0.42828564261317
H            4.10277179931638       -2.05674065922743       -3.18175910795664
H            5.31496791425007       -1.80449629709047       -5.31023159524438
H            7.73234959272921       -2.28222053608254       -5.41891333582396
H            8.92423609625298       -3.01790640132630       -3.39042276627966
H            7.71244622589000       -3.27390039342311       -1.27045852877637
H            2.09264527401051       -5.76376293243663        0.48127668028983
H            2.41594924741619       -5.30578629970773       -1.18762899297737
H            0.11367756610671       -4.51443756496278        0.52500657931412
H            0.27108673538618       -4.34877354266088       -1.21740760148033
H            0.30841315719682       -2.14097514368475        0.37552278007891
H            1.34462378771436       -2.25393986977256       -1.05741926458758
H            1.55516715935350       -4.62754501496979        2.31062788267020
H            1.25736412689026       -3.59935958961748        3.75057949208097
H            1.06790597566188       -5.83358760541668        4.07220555125562
H            1.54698569692721       -5.91844695070156        5.77410369004603
H            2.02684762703198       -7.19861921087377        4.65079642268872
H            5.11192919032889       -5.37102202369963        4.93331568901553
H            4.34997481715864       -6.97004788530920        5.11774139886240
H            4.03167153667074       -5.69192280394756        6.30874987247403
49
 energy: -69.882736277501 gnorm: 0.006652460550 xtb: 6.7.1 (edcfbbe)
C            2.09463240627491       -0.18374959024744        2.11150812910142
C            1.99047387804180       -1.48730958829123        2.87531214155115
O            1.71081516309085       -1.50807505527784        4.05951816833174
N            2.16943228627309       -2.64366369168843        2.18043506745709
C            2.40580929613783       -2.66072530719122        0.75163500810381
C            3.18908034062325       -3.88298357869482        0.22496983774267
O            3.90257038896976       -3.54458880770226       -0.94875573287291
C            5.08716208704964       -2.79753275383085       -0.76035472938199
C            5.82353571402165       -2.68340963231200       -2.06996492126670
C            5.15538826023952       -2.27085343128335       -3.21514883089856
C            5.83356794327521       -2.13338125175199       -4.41228067082073
C            7.19065951427292       -2.39875895589756       -4.47818971182390
C            7.86201184635609       -2.81121181084715       -3.34138836273638
C            7.18108455365459       -2.95724688770275       -2.14577414507991
C            2.13494250883108       -4.91821930977325       -0.20774024839074
C            0.78319797396122       -4.18586089148808       -0.26174150085297
C            1.11252303197703       -2.70216665262790       -0.08318367637075
C            1.95742995952737       -3.86121397051401        2.93359660606321
C            3.24324339727427       -4.36530923842805        3.59900534996641
O            4.32522160398367       -3.85939599904585        3.38486593021808
N            3.09227530604999       -5.42127855006139        4.43072996349477
C            1.86271113498617       -6.10541422911307        4.74308317646105
C            4.21489843551122       -5.87458817528587        5.22172529181738
H            1.86398894075198        0.61949102861268        2.80640744826667
H            1.38876729907815       -0.15667879808163        1.28441725258884
H            3.09913766920215       -0.03096988528705        1.72469947611350
H            2.98474418654401       -1.76784248299170        0.51631006966543
H            3.88803418331784       -4.26301850807132        0.98332121915955
H            5.72038131952297       -3.27646640258312        0.00043160236122
H            4.85072886144932       -1.77881838414433       -0.40360497580773
H            4.09770719532363       -2.06567276553817       -3.16282296110586
H            5.30458977763877       -1.81136819814996       -5.29699700193587
H            7.72249795055192       -2.28493896726724       -5.41107892651116
H            8.92018699119260       -3.02182081289521       -3.38510972140589
H            7.71133551267916       -3.28076842648232       -1.26239724317980
H            2.11118359036877       -5.76815084313776        0.47387708524087
H            2.42756201645504       -5.28533444636158       -1.19044443556437
H            0.12096814906040       -4.52484918914065        0.53582785705972
H            0.27289716785326       -4.36098258087476       -1.20682523330383
H            0.30060516746143       -2.15137716569039        0.38855789695976
H            1.32724839790555       -2.25565952044868       -1.05340959455503
H            1.54295546136252       -4.63011817715432        2.28540093877498
H            1.25093418941217       -3.60574435507020        3.73221676093060
H            1.06077741519966       -5.82771818875362        4.06935124313499
H            1.55031202608308       -5.88979559272999        5.76945743441450
H            2.02679878698261       -7.18416986992097        4.66016121001887
H            5.10436822829976       -5.33994556865543        4.89650991811624
H            4.36006997296764       -6.94873072329510        5.08760633966088
H            4.03895251295337       -5.67371381683099        6.28207420109022
49
 energy: -69.883439176870 gnorm: 0.006326858969 xtb: 6.7.1 (edcfbbe)
C            2.11571859476385       -0.18617496359896        2.13458011427612
C            1.97900539081294       -1.49663767723838        2.87960957463364
O            1.68852028842305       -1.52870193752886        4.06238155134533
N            2.15814593162434       -2.64280874419351        2.16985170178941
C            2.39523337491656       -2.65260630013524        0.74554529984060
C            3.18967031744506       -3.87149076847124        0.22585744267296
O            3.90803767907557       -3.53327159516099       -0.94057125372365
C            5.10026275610237       -2.80760902921094       -0.73998594885163
C            5.82966719676370       -2.68763570957020       -2.05141809094094
C            5.15204782225421       -2.27852533018097       -3.19328301122048
C            5.82388678140798       -2.14140972148376       -4.39439121140380
C            7.18195322821978       -2.40405362256877       -4.46650793742031
C            7.86109655869861       -2.81626922229532       -3.33330928356340
C            7.18702497006499       -2.96238333520496       -2.13338491840550
C            2.14540676781960       -4.91457446155459       -0.21151839899013
C            0.78488302810763       -4.19753710194544       -0.25394996865832
C            1.09795329929614       -2.70858112135866       -0.08118847485373
C            1.93951395982537       -3.86775821443026        2.90671761613320
C            3.23004540257446       -4.36905659987980        3.56230762661886
O            4.31038039169334       -3.86496236641989        3.32049057888013
N            3.08698483028628       -5.40985583397062        4.41148747290307
C            1.85958775786588       -6.08684170380097        4.74257509568839
C            4.22527774964559       -5.85259451383954        5.18561118098113
H            1.87965504678161        0.61263186724837        2.83115845596237
H            1.42796192000849       -0.14777328453312        1.29202230474615
H            3.13200426036636       -0.04617827606293        1.77181423347981
H            2.96720254955936       -1.75727082137571        0.50487451884001
H            3.88376584182353       -4.24035079751207        0.99318535241825
H            5.72902926830845       -3.30797976485191        0.01177044497717
H            4.88279292299273       -1.79004018666387       -0.36465369867703
H            4.09333392828710       -2.07820532539359       -3.13314819974670
H            5.28932029670747       -1.82259389164698       -5.27736803864767
H            7.70850704463927       -2.28943847879990       -5.40232990183712
H            8.91914942918765       -3.02730403819705       -3.38226921952797
H            7.71906544953526       -3.28805366870328       -1.25159136829232
H            2.13504618578684       -5.77484663544054        0.45709778536981
H            2.43750751804016       -5.26125433767424       -1.20122388159354
H            0.13188512614776       -4.54209632229821        0.54920486796931
H            0.26924090092999       -4.38116471596101       -1.19477283924577
H            0.28406515700404       -2.16932285093092        0.40116946763333
H            1.29568027592033       -2.25950108763073       -1.05356270455736
H            1.52592323327289       -4.63102175156652        2.25348226659487
H            1.23555855004705       -3.61964042884550        3.70821045017689
H            1.05273276137238       -5.82225981866749        4.06836677956127
H            1.55427366275824       -5.84858399044402        5.76659125961130
H            2.02316629101906       -7.16701566894649        4.67891631298230
H            5.10162781310051       -5.30234475649937        4.84926617793580
H            4.38369944946837       -6.92372621574871        5.04462971161474
H            4.05790103924937       -5.65542487881268        6.24745270452214
49
 energy: -69.883937436884 gnorm: 0.007614816134 xtb: 6.7.1 (edcfbbe)
C            2.13464991686787       -0.18211139075702        2.15753278179833
C            1.97209589438097       -1.49897220407942        2.88506608750523
O            1.67117606103320       -1.53999316341824        4.06540844875646
N            2.14083046317681       -2.63852165965475        2.16131490442689
C            2.37872523942354       -2.64657030047747        0.73703696814201
C            3.18477988098273       -3.86215325631684        0.22317231730223
O            3.91361605634745       -3.52145566413903       -0.93511879488421
C            5.11624015257625       -2.81932702723598       -0.71917648029633
C            5.84118820166492       -2.69128841988426       -2.03152060462165
C            5.15382875036390       -2.28530299272158       -3.16935061247273
C            5.81745707726386       -2.14852858727317       -4.37532957800778
C            7.17584857951144       -2.40884400106509       -4.45549262616216
C            7.86433475188057       -2.81915891931983       -3.32669061604391
C            7.19871288246337       -2.96482366235806       -2.12150537563438
C            2.15035341457065       -4.91110319001681       -0.22304946743615
C            0.78159690899576       -4.21005555526850       -0.25261252668663
C            1.07880455987188       -2.71730535671950       -0.08350219205465
C            1.92127040866743       -3.87017954362711        2.88737786163028
C            3.21738273042367       -4.37319495453905        3.53010809050647
O            4.29588566111076       -3.87414416529690        3.26159168805166
N            3.08547294475822       -5.40129676427522        4.39609377135457
C            1.85895555737750       -6.07038155406003        4.74753518761964
C            4.23949536459029       -5.83576469503396        5.15253185625372
H            1.89544595470567        0.61391868992332        2.85612029698237
H            1.46386652308289       -0.12691381751958        1.30175364036416
H            3.16168573685547       -0.05465732997214        1.81880209793468
H            2.94114953209003       -1.74659602928519        0.49004021707692
H            3.87289103439169       -4.22650158626213        0.99601853045536
H            5.73769397125187       -3.34417152810521        0.02285688379802
H            4.91643760204354       -1.80574401709239       -0.32300325017401
H            4.09431426857530       -2.08953158803309       -3.10133720500419
H            5.27583183593205       -1.83392201892482       -5.25605014738672
H            7.69564541525094       -2.29469403317507       -5.39546088632403
H            8.92224559157822       -3.03052977697081       -3.38324068917792
H            7.73536782529505       -3.29085313842637       -1.24223623605503
H            2.15258546561554       -5.78144527266070        0.43284214242313
H            2.44059997143672       -5.24060398582506       -1.21948069157710
H            0.13973114336741       -4.56130211235283        0.55714397113338
H            0.25864269896977       -4.40214140838747       -1.18811728070652
H            0.26239168259600       -2.18797759463452        0.40660252880747
H            1.26011539829033       -2.26517460583448       -1.05812865413825
H            1.50855068515322       -4.62847124492697        2.22858585871424
H            1.21646065025089       -3.63343865474775        3.69099761150103
H            1.04964993927190       -5.81980414034055        4.07011478716955
H            1.55821335061570       -5.80778413361705        5.76741782467084
H            2.02049280599697       -7.15190167057681        4.70555534654104
H            5.10399017791551       -5.27227316100412        4.80724193321346
H            4.41111418597814       -6.90366913531179        5.00233202345494
H            4.08258509518852       -5.64543967839904        6.21700825725782
49
 energy: -69.884336440361 gnorm: 0.006077132714 xtb: 6.7.1 (edcfbbe)
C            2.15459458348270       -0.17559566228984        2.17803930066969
C            1.96429645617585       -1.49826151092695        2.88836125300577
O            1.66425864701430       -1.54646168542465        4.06756532521206
N            2.11786846872464       -2.63354263097837        2.15326806602225
C            2.35607894614455       -2.64277681909024        0.72650960963411
C            3.17375376896339       -3.85423393464990        0.21704406115510
O            3.91703712992372       -3.50747954616306       -0.93170623906688
C            5.13299397548065       -2.83249659200795       -0.69784738596740
C            5.85641136322330       -2.69431729485225       -2.01004025828052
C            5.16014745268940       -2.29080670106527       -3.14335239913086
C            5.81421827608879       -2.15485262435571       -4.35459761606375
C            7.17217794135933       -2.41362318326307       -4.44414079498880
C            7.87038861394140       -2.81986931508106       -3.31977343996959
C            7.21421073549971       -2.96448195985391       -2.10900261906865
C            2.14923498036294       -4.90730532194648       -0.24232907840851
C            0.77225894869373       -4.22350423657220       -0.25842300207852
C            1.05408919231118       -2.72843700315378       -0.08883200548786
C            1.90400536616847       -3.86986914315000        2.87439498763758
C            3.20552841392509       -4.37299438416146        3.50643361565456
O            4.28205232205052       -3.88185769477970        3.21472748717761
N            3.08694485038068       -5.39252718555710        4.38404010404962
C            1.86203365146886       -6.05449748675505        4.75729489521982
C            4.25556543237326       -5.82320247254013        5.12092705600119
H            1.91732024552856        0.61755821725368        2.88139029957852
H            1.49862725409104       -0.09733891891675        1.31304306453156
H            3.18989571071484       -0.06177110179084        1.86001755505537
H            2.90751186872709       -1.73668016706678        0.47435909263470
H            3.85497320173463       -4.21836129457886        0.99405706705617
H            5.74414828752403       -3.38547351095240        0.03295971707377
H            4.95083676596610       -1.82542662529851       -0.27825509270103
H            4.10054226425427       -2.09845615174363       -3.06745411772271
H            5.26490984685016       -1.84418794538349       -5.23218965888788
H            7.68418019848779       -2.30198160825875       -5.38899441438582
H            8.92807290952730       -3.03083102036483       -3.38515703652851
H            7.75790135911886       -3.28872704804986       -1.23308957550433
H            2.16367351964552       -5.78786585070781        0.40006441872360
H            2.43903520725867       -5.21986786581557       -1.24504854611626
H            0.14214767569576       -4.58348135598533        0.55710543091009
H            0.24195902928605       -4.42217241611852       -1.18863138813541
H            0.23451706050776       -2.20776810888000        0.40585378020125
H            1.22295106735161       -2.27253601585723       -1.06430873548455
H            1.49373201242812       -4.62552600959697        2.21068003440595
H            1.19616699365962       -3.64464566808069        3.67882503382235
H            1.05167886615226       -5.82066636251748        4.07467558997095
H            1.56361700207863       -5.76676886716629        5.77115603037472
H            2.02316856559626       -7.13671458143035        4.74046280108418
H            5.10904433643011       -5.24764214192390        4.76913364356964
H            4.43884983113877       -6.88744841234045        4.95751523120189
H            4.11078940380302       -5.64432477981079        6.18906885234606
49
 energy: -69.884600800386 gnorm: 0.003854495297 xtb: 6.7.1 (edcfbbe)
C            2.17404040256922       -0.17070801743841        2.19181758994630
C            1.96403316164968       -1.49684813412128        2.88941774134311
O            1.66694250744927       -1.55061753545222        4.06856531617943
N            2.09665547476587       -2.63032450134548        2.14630527346461
C            2.33177770741057       -2.64190819299928        0.71604831166695
C            3.15881986452461       -3.84863663879582        0.20873901700477
O            3.91637570625135       -3.49351291749610       -0.93037728362911
C            5.14536975910059       -2.84511472079406       -0.67939381634785
C            5.87043727309847       -2.69654678000511       -1.99016361013948
C            5.16848027541600       -2.29396741949532       -3.11977074772162
C            5.81441750279088       -2.15901672397795       -4.33513860766346
C            7.17139229438028       -2.41776505647212       -4.43275181158666
C            7.87696251030328       -2.81856968808031       -3.31130574847525
C            7.22864198142000       -2.96176561148279       -2.09614252122844
C            2.14284067229732       -4.90353222319225       -0.26586592436130
C            0.75935673390484       -4.23458712715317       -0.26966000049478
C            1.02821352794316       -2.73849840102977       -0.09574678530335
C            1.88997818893660       -3.86852901954472        2.86784231384753
C            3.19665521766313       -4.36828041643875        3.49225784205411
O            4.27059760304945       -3.88274781116555        3.18610098123871
N            3.09046337126207       -5.38381162723872        4.37595519498233
C            1.86854682669425       -6.04069809902128        4.76996824474069
C            4.26991901501050       -5.81522592613000        5.09485882861396
H            1.94129163933452        0.61898385944444        2.90183515956338
H            1.52874042304573       -0.07080090660242        1.32222721485419
H            3.21376664227147       -0.06791582448631        1.88746860555006
H            2.87395194181745       -1.73057048114524        0.46110072624479
H            3.83320063155352       -4.21591661315846        0.98906679493609
H            5.74491254717080       -3.42504810425144        0.03995558344847
H            4.97885887808974       -1.84577655348915       -0.23777075921801
H            4.10946118157029       -2.10311617389858       -3.03778230848322
H            5.25879981193919       -1.85129854591478       -5.20959893275260
H            7.67669208854886       -2.31063434798400       -5.38182469477119
H            8.93444490376224       -3.02815356553053       -3.38393344180013