49
 energy: -69.892068694914 gnorm: 0.000281504916 xtb: 6.7.1 (edcfbbe)
C            1.84330797769313        0.00953128544679       -0.83456597346320
C            0.96468001643181       -1.21922270314213       -0.91081508183109
O           -0.05966047922277       -1.30416914593602       -0.25162986469635
N            1.32615040674888       -2.22088293836044       -1.74800539313383
C            2.48869909082120       -2.22158149127091       -2.61110377856902
C            3.45241453479021       -3.42225120201120       -2.37527573402409
O            4.58960175019236       -3.05217029673197       -1.63218057462478
C            4.39766162334680       -3.08448601291932       -0.23353900638010
C            5.66359679281956       -2.70005909051760        0.48082707384819
C            6.88577387271932       -2.69268419109347       -0.17546819313930
C            8.04165632842059       -2.34581967971763        0.50261910587887
C            7.98828273748906       -2.00806767560451        1.84346893856556
C            6.77120955736584       -2.01699876712483        2.50507307830657
C            5.61538158673252       -2.35833780607756        1.82737562587512
C            3.88242525625597       -3.85393531964833       -3.77964787831185
C            2.66059881866622       -3.58632051409210       -4.64924869674664
C            2.11258168539678       -2.26248501202218       -4.11057006939778
C            0.40759397779504       -3.35000888894599       -1.80793619144934
C            0.48140354000735       -4.17323734276695       -0.51482359811562
O            1.54976833777247       -4.65905471138992       -0.17267977130160
N           -0.65153064068798       -4.37508375636245        0.17761551574250
C           -1.92709143467722       -3.75993864983896       -0.12130910534509
C           -0.59108131431542       -5.15776050253458        1.39299252942520
H            1.39471564411202        0.68968940250289       -0.11455734436245
H            1.89651270016060        0.50535749498039       -1.80167876758182
H            2.84896826928334       -0.23947648737245       -0.50228750738985
H            3.06104972026721       -1.31898040160186       -2.40145966010559
H            2.92473212767443       -4.23225184131069       -1.85724331682014
H            4.08702407152628       -4.09480402007819        0.07662206449336
H            3.58584299869259       -2.40287713846551        0.06172072185839
H            6.91743400752365       -2.95658452821977       -1.22053155787503
H            8.98826001059410       -2.34104072562064       -0.01845415029819
H            8.89055031956531       -1.73806963947023        2.37262857446545
H            6.72297473340906       -1.75389622202749        3.55189561734772
H            4.66544270110248       -2.36346205205424        2.34322661242041
H            4.20472394599308       -4.89269523377364       -3.80400614173371
H            4.71816587361042       -3.22296372912699       -4.08389363900269
H            1.93134184536582       -4.38858408009431       -4.52096876983310
H            2.91078565616573       -3.52640833695762       -5.70737264535787
H            1.03613380811562       -2.16979630986160       -4.25208075244896
H            2.58970366837824       -1.43012062812228       -4.62770392819983
H            0.71465019743243       -4.00207844426359       -2.62527502190930
H           -0.59837445819382       -2.97394409468599       -1.99408570352729
H           -1.81859667924268       -2.67555608267154       -0.17685148422485
H           -2.61901873266956       -3.99658608243957        0.68326070807961
H           -2.34479652291042       -4.14406754103890       -1.05521566831134
H            0.41814178251274       -5.55160144546445        1.49551574724753
H           -1.30159422753441       -5.98514470006248        1.34105156128420
H           -0.82300748354439       -4.53461271999772        2.25901149471501
