 Entering Gaussian System, Link 0=/data/opt/apps/g09-C01/g09
 Initial command:
 /data/opt/apps/g09-C01/l1.exe /tmp/g09-tuu61186-111555203fba988a9x/Gau-1115621.inp -scrdir=/tmp/g09-tuu61186-111555203fba988a9x/
 Entering Link 1 = /data/opt/apps/g09-C01/l1.exe PID=   1115625.
  
 Copyright (c) 1988,1990,1992,1993,1995,1998,2003,2009,2011,
            Gaussian, Inc.  All Rights Reserved.
  
 This is part of the Gaussian(R) 09 program.  It is based on
 the Gaussian(R) 03 system (copyright 2003, Gaussian, Inc.),
 the Gaussian(R) 98 system (copyright 1998, Gaussian, Inc.),
 the Gaussian(R) 94 system (copyright 1995, Gaussian, Inc.),
 the Gaussian 92(TM) system (copyright 1992, Gaussian, Inc.),
 the Gaussian 90(TM) system (copyright 1990, Gaussian, Inc.),
 the Gaussian 88(TM) system (copyright 1988, Gaussian, Inc.),
 the Gaussian 86(TM) system (copyright 1986, Carnegie Mellon
 University), and the Gaussian 82(TM) system (copyright 1983,
 Carnegie Mellon University). Gaussian is a federally registered
 trademark of Gaussian, Inc.
  
 This software contains proprietary and confidential information,
 including trade secrets, belonging to Gaussian, Inc.
  
 This software is provided under written license and may be
 used, copied, transmitted, or stored only in accord with that
 written license.
  
 The following legend is applicable only to US Government
 contracts under FAR:
  
                    RESTRICTED RIGHTS LEGEND
  
 Use, reproduction and disclosure by the US Government is
 subject to restrictions as set forth in subparagraphs (a)
 and (c) of the Commercial Computer Software - Restricted
 Rights clause in FAR 52.227-19.
  
 Gaussian, Inc.
 340 Quinnipiac St., Bldg. 40, Wallingford CT 06492
  
  
 ---------------------------------------------------------------
 Warning -- This program may not be used in any manner that
 competes with the business of Gaussian, Inc. or will provide
 assistance to any competitor of Gaussian, Inc.  The licensee
 of this program is prohibited from giving any competitor of
 Gaussian, Inc. access to this program.  By using this program,
 the user acknowledges that Gaussian, Inc. is engaged in the
 business of creating and licensing software in the field of
 computational chemistry and represents and warrants to the
 licensee that it is not a competitor of Gaussian, Inc. and that
 it will not use this program in any manner prohibited above.
 ---------------------------------------------------------------
  

 Cite this work as:
 Gaussian 09, Revision C.01,
 M. J. Frisch, G. W. Trucks, H. B. Schlegel, G. E. Scuseria, 
 M. A. Robb, J. R. Cheeseman, G. Scalmani, V. Barone, B. Mennucci, 
 G. A. Petersson, H. Nakatsuji, M. Caricato, X. Li, H. P. Hratchian, 
 A. F. Izmaylov, J. Bloino, G. Zheng, J. L. Sonnenberg, M. Hada, 
 M. Ehara, K. Toyota, R. Fukuda, J. Hasegawa, M. Ishida, T. Nakajima, 
 Y. Honda, O. Kitao, H. Nakai, T. Vreven, J. A. Montgomery, Jr., 
 J. E. Peralta, F. Ogliaro, M. Bearpark, J. J. Heyd, E. Brothers, 
 K. N. Kudin, V. N. Staroverov, T. Keith, R. Kobayashi, J. Normand, 
 K. Raghavachari, A. Rendell, J. C. Burant, S. S. Iyengar, J. Tomasi, 
 M. Cossi, N. Rega, J. M. Millam, M. Klene, J. E. Knox, J. B. Cross, 
 V. Bakken, C. Adamo, J. Jaramillo, R. Gomperts, R. E. Stratmann, 
 O. Yazyev, A. J. Austin, R. Cammi, C. Pomelli, J. W. Ochterski, 
 R. L. Martin, K. Morokuma, V. G. Zakrzewski, G. A. Voth, 
 P. Salvador, J. J. Dannenberg, S. Dapprich, A. D. Daniels, 
 O. Farkas, J. B. Foresman, J. V. Ortiz, J. Cioslowski, 
 and D. J. Fox, Gaussian, Inc., Wallingford CT, 2010.
 
 ******************************************
 Gaussian 09:  EM64L-G09RevC.01 23-Sep-2011
                 4-Mar-2026 
 ******************************************
 %nproc=1
 Will use up to    1 processors via shared memory.
 %mem=512MB
 %chk=
 -----------------------------------------------------
 ## b3lyp/6-31g** maxdisk=16GB, pop=(minimal, MK), 5d,
 -----------------------------------------------------
 1/38=1/1;
 2/12=2,17=6,18=5,40=1/2;
 3/5=1,6=6,7=101,8=1,11=2,16=1,25=1,30=1,74=-5/1,2,3;
 4//1;
 5/5=2,38=5/2;
 6/7=2,8=2,9=2,10=2,15=8,20=1,28=1/1,2;
 99/5=1,9=1/99;
 -----------------
 Generated by mdgx
 -----------------
 Charge =  0 Multiplicity = 1
 Symbolic Z-Matrix:
 C                     17.16672   12.35634   16.78864 
 C                     17.62991   13.50999   15.90514 
 O                     18.26128   13.27524   14.89243 
 N                     17.32199   14.83793   16.26189 
 C                     16.61032   15.19573   17.50762 
 C                     15.08984   15.40595   17.33179 
 C                     14.40769   15.6899   18.66519 
 C                     13.82262   14.6456   19.40021 
 C                     13.20174   14.90024   20.63457 
 C                     13.15482   16.2152   21.16172 
 O                     12.54155   16.45908   22.37987 
 C                     11.9198   15.43062   23.16019 
 C                     13.75427   17.27893   20.41308 
 O                     13.79557   18.61306   20.79263 
 C                     13.22141   19.12667   21.99936 
 C                     14.36958   16.99736   19.18145 
 C                     17.68618   15.93519   15.32968 
 C                     16.7407   16.07958   14.10532 
 O                     15.65644   15.51715   14.07674 
 N                     17.13088   16.93191   13.05013 
 C                     18.46422   17.55935   13.01239 
 C                     16.24559   17.10284   11.88356 
 H                     17.3962   11.38559   16.3359 
 H                     16.09872   12.4625   17.00138 
 H                     17.63651   12.44769   17.77308 
 H                     17.04925   16.12486   17.89252 
 H                     16.787    14.43182   18.2723 
 H                     14.65218   14.51539   16.86422 
 H                     14.91751   16.2402   16.64104 
 H                     13.84725   13.62954   19.01258 
 H                     12.76178   14.0628   21.16517 
 H                     11.50052   15.85772   24.07924 
 H                     12.65069   14.66259   23.44254 
 H                     11.1038   14.95812   22.59923 
 H                     13.38537   20.20942   22.05782 
 H                     13.68889   18.6677   22.8791 
 H                     12.13943   18.94797   22.02269 
 H                     14.81773   17.81567   18.62569 
 H                     18.7088   15.76489   14.97126 
 H                     17.68476   16.89095   15.86831 
 H                     18.62583   18.13901   13.92965 
 H                     18.54997   18.23416   12.15186 
 H                     19.23301   16.78099   12.93163 
 H                     15.26668   17.4695   12.21675 
 H                     16.11879   16.13815   11.37668 
 H                     16.67104   17.82471   11.17559 
 
                          Input orientation:                          
 ---------------------------------------------------------------------
 Center     Atomic      Atomic             Coordinates (Angstroms)
 Number     Number       Type             X           Y           Z
 ---------------------------------------------------------------------
      1          6           0       17.166717   12.356338   16.788636
      2          6           0       17.629907   13.509995   15.905140
      3          8           0       18.261282   13.275237   14.892434
      4          7           0       17.321989   14.837933   16.261886
      5          6           0       16.610316   15.195732   17.507624
      6          6           0       15.089843   15.405949   17.331787
      7          6           0       14.407685   15.689904   18.665193
      8          6           0       13.822623   14.645605   19.400206
      9          6           0       13.201740   14.900244   20.634566
     10          6           0       13.154816   16.215204   21.161721
     11          8           0       12.541547   16.459075   22.379866
     12          6           0       11.919801   15.430616   23.160189
     13          6           0       13.754266   17.278931   20.413083
     14          8           0       13.795569   18.613058   20.792625
     15          6           0       13.221406   19.126674   21.999356
     16          6           0       14.369584   16.997364   19.181446
     17          6           0       17.686184   15.935187   15.329682
     18          6           0       16.740703   16.079582   14.105322
     19          8           0       15.656441   15.517146   14.076740
     20          7           0       17.130875   16.931911   13.050128
     21          6           0       18.464222   17.559349   13.012394
     22          6           0       16.245592   17.102843   11.883562
     23          1           0       17.396204   11.385590   16.335896
     24          1           0       16.098718   12.462495   17.001379
     25          1           0       17.636507   12.447687   17.773078
     26          1           0       17.049245   16.124857   17.892524
     27          1           0       16.787001   14.431815   18.272303
     28          1           0       14.652175   14.515391   16.864220
     29          1           0       14.917512   16.240200   16.641045
     30          1           0       13.847250   13.629545   19.012576
     31          1           0       12.761781   14.062798   21.165168
     32          1           0       11.500520   15.857717   24.079239
     33          1           0       12.650687   14.662592   23.442539
     34          1           0       11.103801   14.958121   22.599230
     35          1           0       13.385374   20.209419   22.057816
     36          1           0       13.688891   18.667697   22.879099
     37          1           0       12.139432   18.947969   22.022692
     38          1           0       14.817734   17.815669   18.625686
     39          1           0       18.708799   15.764892   14.971260
     40          1           0       17.684759   16.890953   15.868307
     41          1           0       18.625826   18.139011   13.929650
     42          1           0       18.549966   18.234157   12.151865
     43          1           0       19.233006   16.780993   12.931628
     44          1           0       15.266676   17.469501   12.216746
     45          1           0       16.118792   16.138149   11.376684
     46          1           0       16.671038   17.824708   11.175587
 ---------------------------------------------------------------------
                    Distance matrix (angstroms):
                    1          2          3          4          5
     1  C    0.000000
     2  C    1.525134   0.000000
     3  O    2.374453   1.216272   0.000000
     4  N    2.541631   1.409079   2.280283   0.000000
     5  C    2.981390   2.539535   3.640496   1.478635   0.000000
     6  C    3.729416   3.475901   4.533034   2.539646   1.544974
     7  C    4.716607   4.769970   5.908852   3.872325   2.536878
     8  C    4.821204   5.291551   6.472991   4.704423   3.414050
     9  C    6.081421   6.626382   7.823790   6.008382   4.635026
    10  C    7.078846   7.414597   8.603683   6.578038   5.131493
    11  O    8.335857   8.747032   9.945543   7.931607   6.472222
    12  C    8.807838   9.430262  10.640292   8.781884   7.348985
    13  C    7.000954   7.038965   8.174369   5.993292   4.575852
    14  O    8.157396   8.039336   9.123989   6.871302   5.512907
    15  C    9.410342   9.387303  10.495142   8.253886   6.863867
    16  C    5.923564   5.790133   6.884414   4.680135   3.326926
    17  C    3.899558   2.493166   2.756312   1.485129   2.539236
    18  C    4.609144   3.260799   3.285735   2.555456   3.517649
    19  O    4.430126   3.356527   3.532238   2.830237   3.575493
    20  N    5.908772   4.484376   4.247725   3.838835   4.811919
    21  C    6.558570   5.045922   4.682878   4.389761   5.406547
    22  C    6.887491   5.567582   5.269429   5.045609   5.949804
    23  H    1.095440   2.180198   2.530358   3.453934   4.062973
    24  H    1.094143   2.154886   3.128079   2.772354   2.826411
    25  H    1.094611   2.148892   3.061584   2.845330   2.945384
    26  H    3.928626   3.335322   4.311601   2.095123   1.097306
    27  H    2.579353   2.676511   3.864543   2.119651   1.095226
    28  H    3.315138   3.285962   4.295529   2.755856   2.170518
    29  H    4.490555   3.918248   4.798900   2.809203   2.169668
    30  H    4.193546   4.896831   6.048536   4.593507   3.514592
    31  H    6.439682   7.188334   8.379258   6.740809   5.428848
    32  H    9.875137  10.483181  11.695062   9.800023   8.350710
    33  H    8.365869   9.106784  10.320263   8.568172   7.154447
    34  H    8.791543   9.460337  10.651588   8.879314   7.503506
    35  H   10.184974  10.037618  11.099552   8.828510   7.499437
    36  H    9.435161   9.527309  10.666405   8.464868   7.031501
    37  H    9.804006   9.856030  10.977136   8.771440   7.379290
    38  H    6.220673   5.817949   6.812541   4.552554   3.365632
    39  H    4.159220   2.668464   2.530784   2.109078   3.340766
    40  H    4.655975   3.381604   3.789209   2.121650   2.591441
    41  H    6.613782   5.130518   4.971533   4.246933   5.052433
    42  H    7.613263   6.103383   5.673178   5.471247   6.455883
    43  H    6.222831   4.702247   4.132714   4.303265   5.507385
    44  H    7.117357   5.904812   5.806791   5.245247   5.913441
    45  H    6.685018   5.449548   5.014681   5.196484   6.222393
    46  H    7.852075   6.473396   6.086174   5.934223   6.856377
                    6          7          8          9         10
     6  C    0.000000
     7  C    1.524448   0.000000
     8  C    2.542111   1.404671   0.000000
     9  C    3.837840   2.440552   1.404984   0.000000
    10  C    4.366649   2.842230   2.452049   1.417468   0.000000
    11  O    5.752042   4.227634   3.715939   2.431437   1.385442
    12  C    6.634760   5.144102   4.286543   2.881568   2.476835
    13  C    3.845285   2.450935   2.822233   2.452039   1.432241
    14  O    4.892658   3.666809   4.204789   3.763324   2.509283
    15  C    6.254683   4.933081   5.215077   4.441369   3.030301
    16  C    2.544133   1.406208   2.424416   2.805945   2.451311
    17  C    3.321069   4.683412   5.758410   7.023043   7.390831
    18  C    3.686353   5.136852   6.213476   7.519716   7.916423
    19  O    3.305863   4.758481   5.697522   7.029310   7.546017
    20  N    4.982667   6.362963   7.516330   8.780061   9.062044
    21  C    5.889034   7.204475   8.416560   9.636496   9.818760
    22  C    5.822230   7.166925   8.270957   9.523473   9.819625
    23  H    4.740715   5.734456   5.726096   6.958799   8.037607
    24  H    3.129044   4.005501   3.962443   5.247395   6.329126
    25  H    3.928301   4.661880   4.692984   5.819820   6.764809
    26  H    2.161136   2.786403   3.856473   4.880755   5.085508
    27  H    2.171140   2.719980   3.178900   4.319005   4.972120
    28  H    1.096934   2.163969   2.671392   4.058002   4.857980
    29  H    1.096722   2.158686   3.369642   4.548359   4.852240
    30  H    2.743119   2.163294   1.087769   2.159215   3.432772
    31  H    4.681745   3.406809   2.140127   1.084628   2.187999
    32  H    7.656072   6.147492   5.362343   3.959378   3.372892
    33  H    6.621431   5.192827   4.208822   2.871385   2.804796
    34  H    6.620803   5.189200   4.209918   2.874822   2.802383
    35  H    6.950820   5.742911   6.181433   5.499701   4.099987
    36  H    6.585920   5.209695   5.319568   4.412363   3.041273
    37  H    6.576886   5.199304   5.312335   4.409021   3.039783
    38  H    2.748631   2.165313   3.411662   3.891882   3.429032
    39  H    4.335639   5.670127   6.689027   7.946593   8.328944
    40  H    3.328754   4.472618   5.694910   6.839416   6.999804
    41  H    5.616702   6.798251   8.074753   9.212287   9.270159
    42  H    6.841258   8.127433   9.368240  10.567626  10.693986
    43  H    6.198221   7.572844   8.699116   9.962361  10.246899
    44  H    5.518439   6.744428   7.852501   9.040173   9.276087
    45  H    6.087537   7.500079   8.478030   9.785192  10.224385
    46  H    6.800689   8.110139   9.266311  10.490987  10.708744
                   11         12         13         14         15
    11  O    0.000000
    12  C    1.432899   0.000000
    13  C    2.451752   3.785251   0.000000
    14  O    2.954919   4.387688   1.387679   0.000000
    15  C    2.779043   4.086876   2.492861   1.431665   0.000000
    16  C    3.723085   4.928137   1.405285   2.352841   3.713879
    17  C    8.743388   9.737690   6.565561   7.221608   8.637383
    18  C    9.286819  10.278758   7.081320   7.733844   9.164387
    19  O    8.918055   9.822373   6.846269   7.625656   9.040240
    20  N   10.408146  11.472685   8.107713   8.596324  10.009476
    21  C   11.137244  12.261268   8.776817   9.134474  10.521840
    22  C   11.149295  12.193077   8.887656   9.362412  10.750390
    23  H    9.264854   9.639720   8.038571   9.222977  10.460789
    24  H    7.586452   8.012742   6.350924   7.583368   8.813058
    25  H    7.954392   8.402354   6.736642   7.866529   9.053365
    26  H    6.369245   7.385219   4.306041   5.018779   6.366265
    27  H    6.245457   6.969840   4.678299   5.725686   6.974675
    28  H    6.217316   6.924069   4.586701   5.740821   7.048451
    29  H    6.215077   7.220868   4.081712   4.911704   6.318228
    30  H    4.588000   4.915446   3.909998   5.292131   6.287365
    31  H    2.695578   2.561243   3.448793   4.681066   5.152666
    32  H    2.081643   1.096752   4.532099   4.864256   4.239510
    33  H    2.090105   1.097168   4.152195   4.892748   4.726154
    34  H    2.089999   1.097170   4.146126   4.885489   4.713908
    35  H    3.857569   5.118602   3.380679   2.077820   1.096649
    36  H    2.538433   3.699646   2.830933   2.089914   1.096882
    37  H    2.546342   3.703229   2.825636   2.089981   1.096882
    38  H    4.595133   5.886273   2.147985   2.525129   3.955837
    39  H    9.664591  10.642405   7.513530   8.132660   9.529281
    40  H    8.309005   9.409510   6.021154   6.506947   7.906310
    41  H   10.547360  11.726425   8.155166   8.405744   9.762346
    42  H   11.994333  13.153027   9.599944   9.869681  11.232241
    43  H   11.582247  12.646341   9.286371   9.732289  11.129476
    44  H   10.570539  11.624008   8.336884   8.775967  10.130588
    45  H   11.574528  12.529291   9.410041  10.009121  11.409088
    46  H   12.018882  13.112460   9.702410  10.068627  11.434555
                   16         17         18         19         20
    16  C    0.000000
    17  C    5.192700   0.000000
    18  C    5.677285   1.553654   0.000000
    19  O    5.468552   2.421668   1.221792   0.000000
    20  N    6.724735   2.549155   1.411429   2.286798   0.000000
    21  C    7.425570   2.934803   2.520857   3.631399   1.474082
    22  C    7.535890   3.913370   2.495679   2.769759   1.474388
    23  H    6.982090   4.668553   5.238197   5.019992   6.452003
    24  H    5.320492   4.168237   4.677885   4.252060   6.054205
    25  H    5.775452   4.258557   5.238852   5.196648   6.532242
    26  H    3.098899   2.647607   3.800019   4.107240   4.909867
    27  H    3.640396   3.424569   4.481184   4.478711   5.799986
    28  H    3.407283   3.684540   3.797389   3.127636   5.150807
    29  H    2.706873   3.078676   3.127253   2.764866   4.274590
    30  H    3.412265   5.798026   6.201282   5.585579   7.565620
    31  H    3.889969   7.861837   8.351088   7.793587   9.652702
    32  H    5.789534  10.715558  11.268885  10.836865  12.429645
    33  H    5.153900   9.632973  10.291731   9.873349  11.542274
    34  H    5.148310   9.855391  10.255672   9.678423  11.463280
    35  H    4.422610   9.057252   9.568487   9.532720  10.291224
    36  H    4.114122   8.968760   9.643187   9.553991  10.557882
    37  H    4.105011   9.199983   9.596045   9.342272  10.463551
    38  H    1.085971   4.756875   5.210134   5.165225   6.100696
    39  H    6.170368   1.096909   2.173081   3.190365   2.746365
    40  H    4.688134   1.097091   2.158166   3.034985   2.872385
    41  H    6.855678   2.774863   2.797463   3.963970   2.113180
    42  H    8.271654   4.016206   3.425145   4.411324   2.125216
    43  H    7.922115   2.976358   2.842729   3.962373   2.110870
    44  H    7.038091   4.230663   2.769720   2.724552   2.111579
    45  H    8.044395   4.257241   2.799227   2.808864   2.110637
    46  H    8.371079   4.675181   3.410816   3.843298   2.126604
                   21         22         23         24         25
    21  C    0.000000
    22  C    2.530806   0.000000
    23  H    7.092364   7.337177   0.000000
    24  H    6.890974   6.909880   1.812749   0.000000
    25  H    7.034082   7.634889   1.803132   1.720620   0.000000
    26  H    5.279734   6.140842   5.000412   3.887227   3.725685
    27  H    6.345170   6.945756   3.660641   2.442786   2.215322
    28  H    6.215621   5.834452   4.195769   2.515091   3.742681
    29  H    5.242749   5.014139   5.459329   3.974436   4.801832
    30  H    8.530063   8.284847   4.979460   3.236670   4.158318
    31  H   10.545683  10.369524   7.208827   5.570751   6.154495
    32  H   13.185740  13.145363  10.710666   9.097641   9.436435
    33  H   12.287242  12.348608   9.152215   7.630065   7.868100
    34  H   12.363236  12.077391   9.570092   7.906534   8.501192
    35  H   10.706878  11.015766  11.255536   9.640780   9.832375
    36  H   11.017445  11.396812  10.468369   8.880281   8.963462
    37  H   11.095797  11.093556  10.824180   9.107739   9.514763
    38  H    6.698628   6.928429   7.296408   5.738969   6.122716
    39  H    2.667780   4.170297   4.771103   4.673299   4.472566
    40  H    3.034889   4.241968   5.532714   4.838452   4.834573
    41  H    1.097033   3.305395   7.273974   6.931423   6.938434
    42  H    1.096918   2.581085   8.108030   7.927073   8.118848
    43  H    1.096991   3.182243   6.638769   6.710890   6.690739
    44  H    3.296275   1.097144   7.649592   6.975322   7.855415
    45  H    3.193180   1.097105   6.986586   6.719228   7.539021
    46  H    2.580657   1.096961   8.283532   7.938560   8.565710
                   26         27         28         29         30
    26  H    0.000000
    27  H    1.754821   0.000000
    28  H    3.064920   2.558742   0.000000
    29  H    2.474629   3.070219   1.759311   0.000000
    30  H    4.211161   3.135885   2.459281   3.685803   0.000000
    31  H    5.774482   4.970638   4.719808   5.464060   2.449409
    32  H    8.314755   7.981264   7.986943   8.194441   6.011901
    33  H    7.231058   6.625231   6.877638   7.340822   4.703565
    34  H    7.672200   7.162265   6.758499   7.189442   4.706985
    35  H    6.888923   7.699473   7.810261   6.887929   7.265092
    36  H    6.528702   6.983090   7.372132   6.805555   6.352799
    37  H    7.009602   7.487386   7.250618   6.634144   6.345319
    38  H    2.894134   3.931076   3.744597   2.535914   4.314529
    39  H    3.378975   4.045650   4.647660   4.169887   6.672826
    40  H    2.255712   3.554227   3.978907   2.945889   5.937145
    41  H    4.716651   5.998602   6.126355   4.970789   8.306998
    42  H    6.297339   7.417925   7.157394   6.109282   9.507227
    43  H    5.459836   6.326483   6.448429   5.716268   8.712974
    44  H    6.099186   6.943248   5.541064   4.605162   7.933684
    45  H    6.581952   7.134959   5.907399   5.400647   8.352237
    46  H    6.939004   7.866928   6.883889   5.954557   9.326928
                   31         32         33         34         35
    31  H    0.000000
    32  H    3.647509   0.000000
    33  H    2.357650   1.776680   0.000000
    34  H    2.367917   1.776819   1.786439   0.000000
    35  H    6.242327   5.155205   5.764071   5.751072   0.000000
    36  H    5.000219   3.758363   4.175667   4.530118   1.773002
    37  H    4.998756   3.766597   4.543325   4.162188   1.773377
    38  H    4.975938   6.676730   6.151428   6.143934   4.422806
    39  H    8.753779  11.615644  10.472743  10.801518   9.915238
    40  H    7.764723  10.331108   9.363572   9.609900   8.234498
    41  H   10.166380  12.609062  11.759373  11.910522   9.890198
    42  H   11.495345  14.057184  13.230151  13.241043  11.344715
    43  H   10.819266  13.598272  12.581486  12.762027  11.368211
    44  H    9.897191  12.549921  11.863413  11.464403  10.387161
    45  H   10.554195  13.518949  12.640803  12.348609  11.753017
    46  H   11.367761  14.039500  13.290610  13.027320  11.614876
                   36         37         38         39         40
    36  H    0.000000
    37  H    1.792432   0.000000
    38  H    4.482384   4.471583   0.000000
    39  H    9.806103  10.149446   5.718470   0.000000
    40  H    8.262868   8.535715   4.083880   1.766738   0.000000
    41  H   10.234524  10.403127   6.054657   2.593893   2.490311
    42  H   11.785227  11.791425   7.484320   3.751198   4.045333
    43  H   11.543355  11.732946   7.279249   2.338237   3.321632
    44  H   10.844854  10.398178   6.433964   4.726653   4.417662
    45  H   12.025331  11.707600   7.553467   4.446171   4.815978
    46  H   12.106859  11.809185   7.677160   4.775191   4.890925
                   41         42         43         44         45
    41  H    0.000000
    42  H    1.781945   0.000000
    43  H    1.791348   1.785010   0.000000
    44  H    3.829644   3.371780   4.088627   0.000000
    45  H    4.099549   3.302236   3.539693   1.790057   0.000000
    46  H    3.391880   2.156650   3.276691   1.783933   1.786028
                   46
    46  H    0.000000
 Stoichiometry    C16H24N2O4
 Framework group  C1[X(C16H24N2O4)]
 Deg. of freedom   132
 Full point group                 C1      NOp   1
 Largest Abelian subgroup         C1      NOp   1
 Largest concise Abelian subgroup C1      NOp   1
                         Standard orientation:                         
 ---------------------------------------------------------------------
 Center     Atomic      Atomic             Coordinates (Angstroms)
 Number     Number       Type             X           Y           Z
 ---------------------------------------------------------------------
      1          6           0        1.957056    3.516677   -0.301076
      2          6           0        2.823242    2.291180   -0.572945
      3          8           0        4.033973    2.404577   -0.597183
      4          7           0        2.219972    1.036370   -0.789792
      5          6           0        0.754973    0.840575   -0.832261
      6          6           0        0.140081    0.360172    0.501180
      7          6           0       -1.378326    0.258726    0.411219
      8          6           0       -2.187539    1.328206    0.828936
      9          6           0       -3.587076    1.243907    0.738536
     10          6           0       -4.208631    0.078763    0.223441
     11          8           0       -5.589244    0.002646    0.136474
     12          6           0       -6.457334    1.060570    0.561229
     13          6           0       -3.382690   -1.010049   -0.205074
     14          8           0       -3.835413   -2.210770   -0.733247
     15          6           0       -5.216232   -2.543331   -0.913260
     16          6           0       -1.985316   -0.900080   -0.104681
     17          6           0        3.085955   -0.160624   -0.941073
     18          6           0        3.666884   -0.707064    0.392257
     19          8           0        3.221811   -0.342057    1.469965
     20          7           0        4.678535   -1.689526    0.333423
     21          6           0        5.295871   -2.091773   -0.943296
     22          6           0        5.236048   -2.239886    1.582464
     23          1           0        2.566294    4.394289   -0.058969
     24          1           0        1.238702    3.289997    0.492480
     25          1           0        1.325329    3.709947   -1.173854
     26          1           0        0.536128    0.094627   -1.606696
     27          1           0        0.262584    1.766346   -1.148521
     28          1           0        0.426892    1.051725    1.302903
     29          1           0        0.563007   -0.617214    0.763188
     30          1           0       -1.730006    2.230807    1.227955
     31          1           0       -4.170807    2.093798    1.075228
     32          1           0       -7.504051    0.775477    0.400073
     33          1           0       -6.260666    1.976561   -0.009787
     34          1           0       -6.320199    1.269288    1.629598
     35          1           0       -5.303860   -3.549653   -1.340200
     36          1           0       -5.698874   -1.841526   -1.604402
     37          1           0       -5.746681   -2.537242    0.046811
     38          1           0       -1.373734   -1.735501   -0.432357
     39          1           0        3.915093    0.090111   -1.614030
     40          1           0        2.515664   -0.969627   -1.414241
     41          1           0        4.518517   -2.432500   -1.638357
     42          1           0        6.009306   -2.910208   -0.787080
     43          1           0        5.826396   -1.236190   -1.379082
     44          1           0        4.428864   -2.678452    2.182330
     45          1           0        5.717074   -1.435884    2.153282
     46          1           0        5.978669   -3.017874    1.366663
 ---------------------------------------------------------------------
 Rotational constants (GHZ):      0.4828014      0.1063557      0.0936132
 Standard basis: 6-31G(d,p) (5D, 7F)
 There are   428 symmetry adapted basis functions of A   symmetry.
 Integral buffers will be    131072 words long.
 Raffenetti 2 integral format.
 Two-electron integral symmetry is turned on.
   428 basis functions,   784 primitive gaussians,   450 cartesian basis functions
    83 alpha electrons       83 beta electrons
       nuclear repulsion energy      1783.7972721464 Hartrees.
 NAtoms=   46 NActive=   46 NUniq=   46 SFac= 1.00D+00 NAtFMM=   60 NAOKFM=F Big=F
 One-electron integrals computed using PRISM.
 NBasis=   428 RedAO= T  NBF=   428
 NBsUse=   428 1.00D-06 NBFU=   428
 Harris functional with IExCor=  402 diagonalized for initial guess.
 ExpMin= 1.61D-01 ExpMax= 5.48D+03 ExpMxC= 8.25D+02 IAcc=1 IRadAn=         1 AccDes= 0.00D+00
 HarFok:  IExCor=  402 AccDes= 0.00D+00 IRadAn=         1 IDoV= 1
 ScaDFX=  1.000000  1.000000  1.000000  1.000000
 FoFCou: FMM=F IPFlag=           0 FMFlag=      100000 FMFlg1=           0
         NFxFlg=           0 DoJE=T BraDBF=F KetDBF=T FulRan=T
         Omega=  0.000000  0.000000  1.000000  0.000000  0.000000 ICntrl=     500 IOpCl=  0
         NMat0=    1 NMatS0=    1 NMatT0=    0 NMatD0=    1 NMtDS0=    0 NMtDT0=    0
         I1Cent=           4 NGrid=           0.
 Petite list used in FoFCou.
 Initial guess orbital symmetries:
       Occupied  (A) (A) (A) (A) (A) (A) (A) (A) (A) (A) (A) (A)
                 (A) (A) (A) (A) (A) (A) (A) (A) (A) (A) (A) (A)
                 (A) (A) (A) (A) (A) (A) (A) (A) (A) (A) (A) (A)
                 (A) (A) (A) (A) (A) (A) (A) (A) (A) (A) (A) (A)
                 (A) (A) (A) (A) (A) (A) (A) (A) (A) (A) (A) (A)
                 (A) (A) (A) (A) (A) (A) (A) (A) (A) (A) (A) (A)
                 (A) (A) (A) (A) (A) (A) (A) (A) (A) (A) (A)
       Virtual   (A) (A) (A) (A) (A) (A) (A) (A) (A) (A) (A) (A)
                 (A) (A) (A) (A) (A) (A) (A) (A) (A) (A) (A) (A)
                 (A) (A) (A) (A) (A) (A) (A) (A) (A) (A) (A) (A)
                 (A) (A) (A) (A) (A) (A) (A) (A) (A) (A) (A) (A)
                 (A) (A) (A) (A) (A) (A) (A) (A) (A) (A) (A) (A)
                 (A) (A) (A) (A) (A) (A) (A) (A) (A) (A) (A) (A)
                 (A) (A) (A) (A) (A) (A) (A) (A) (A) (A) (A) (A)
                 (A) (A) (A) (A) (A) (A) (A) (A) (A) (A) (A) (A)
                 (A) (A) (A) (A) (A) (A) (A) (A) (A) (A) (A) (A)
                 (A) (A) (A) (A) (A) (A) (A) (A) (A) (A) (A) (A)
                 (A) (A) (A) (A) (A) (A) (A) (A) (A) (A) (A) (A)
                 (A) (A) (A) (A) (A) (A) (A) (A) (A) (A) (A) (A)
                 (A) (A) (A) (A) (A) (A) (A) (A) (A) (A) (A) (A)
                 (A) (A) (A) (A) (A) (A) (A) (A) (A) (A) (A) (A)
                 (A) (A) (A) (A) (A) (A) (A) (A) (A) (A) (A) (A)
                 (A) (A) (A) (A) (A) (A) (A) (A) (A) (A) (A) (A)
                 (A) (A) (A) (A) (A) (A) (A) (A) (A) (A) (A) (A)
                 (A) (A) (A) (A) (A) (A) (A) (A) (A) (A) (A) (A)
                 (A) (A) (A) (A) (A) (A) (A) (A) (A) (A) (A) (A)
                 (A) (A) (A) (A) (A) (A) (A) (A) (A) (A) (A) (A)
                 (A) (A) (A) (A) (A) (A) (A) (A) (A) (A) (A) (A)
                 (A) (A) (A) (A) (A) (A) (A) (A) (A) (A) (A) (A)
                 (A) (A) (A) (A) (A) (A) (A) (A) (A) (A) (A) (A)
                 (A) (A) (A) (A) (A) (A) (A) (A) (A) (A) (A) (A)
                 (A) (A) (A) (A) (A) (A) (A) (A) (A) (A) (A) (A)
                 (A) (A) (A) (A) (A) (A) (A) (A) (A) (A) (A) (A)
                 (A) (A) (A) (A) (A) (A) (A) (A) (A) (A) (A) (A)
                 (A) (A) (A) (A) (A) (A) (A) (A) (A) (A) (A) (A)
                 (A) (A) (A) (A) (A) (A) (A) (A) (A)
 The electronic state of the initial guess is 1-A.
 Requested convergence on RMS density matrix=1.00D-08 within 128 cycles.
 Requested convergence on MAX density matrix=1.00D-06.
 Requested convergence on             energy=1.00D-06.
 No special actions if energy rises.
 Integral accuracy reduced to 1.0D-05 until final iterations.
 Initial convergence to 1.0D-05 achieved.  Increase integral accuracy.
 SCF Done:  E(RB3LYP) =  -1034.54228213     A.U. after   15 cycles
             Convg  =    0.4552D-08             -V/T =  2.0075

 **********************************************************************

            Population analysis using the SCF density.

 **********************************************************************

 Orbital symmetries:
       Occupied  (A) (A) (A) (A) (A) (A) (A) (A) (A) (A) (A) (A)
                 (A) (A) (A) (A) (A) (A) (A) (A) (A) (A) (A) (A)
                 (A) (A) (A) (A) (A) (A) (A) (A) (A) (A) (A) (A)
                 (A) (A) (A) (A) (A) (A) (A) (A) (A) (A) (A) (A)
                 (A) (A) (A) (A) (A) (A) (A) (A) (A) (A) (A) (A)
                 (A) (A) (A) (A) (A) (A) (A) (A) (A) (A) (A) (A)
                 (A) (A) (A) (A) (A) (A) (A) (A) (A) (A) (A)
       Virtual   (A) (A) (A) (A) (A) (A) (A) (A) (A) (A) (A) (A)
                 (A) (A) (A) (A) (A) (A) (A) (A) (A) (A) (A) (A)
                 (A) (A) (A) (A) (A) (A) (A) (A) (A) (A) (A) (A)
                 (A) (A) (A) (A) (A) (A) (A) (A) (A) (A) (A) (A)
                 (A) (A) (A) (A) (A) (A) (A) (A) (A) (A) (A) (A)
                 (A) (A) (A) (A) (A) (A) (A) (A) (A) (A) (A) (A)
                 (A) (A) (A) (A) (A) (A) (A) (A) (A) (A) (A) (A)
                 (A) (A) (A) (A) (A) (A) (A) (A) (A) (A) (A) (A)
                 (A) (A) (A) (A) (A) (A) (A) (A) (A) (A) (A) (A)
                 (A) (A) (A) (A) (A) (A) (A) (A) (A) (A) (A) (A)
                 (A) (A) (A) (A) (A) (A) (A) (A) (A) (A) (A) (A)
                 (A) (A) (A) (A) (A) (A) (A) (A) (A) (A) (A) (A)
                 (A) (A) (A) (A) (A) (A) (A) (A) (A) (A) (A) (A)
                 (A) (A) (A) (A) (A) (A) (A) (A) (A) (A) (A) (A)
                 (A) (A) (A) (A) (A) (A) (A) (A) (A) (A) (A) (A)
                 (A) (A) (A) (A) (A) (A) (A) (A) (A) (A) (A) (A)
                 (A) (A) (A) (A) (A) (A) (A) (A) (A) (A) (A) (A)
                 (A) (A) (A) (A) (A) (A) (A) (A) (A) (A) (A) (A)
                 (A) (A) (A) (A) (A) (A) (A) (A) (A) (A) (A) (A)
                 (A) (A) (A) (A) (A) (A) (A) (A) (A) (A) (A) (A)
                 (A) (A) (A) (A) (A) (A) (A) (A) (A) (A) (A) (A)
                 (A) (A) (A) (A) (A) (A) (A) (A) (A) (A) (A) (A)
                 (A) (A) (A) (A) (A) (A) (A) (A) (A) (A) (A) (A)
                 (A) (A) (A) (A) (A) (A) (A) (A) (A) (A) (A) (A)
                 (A) (A) (A) (A) (A) (A) (A) (A) (A) (A) (A) (A)
                 (A) (A) (A) (A) (A) (A) (A) (A) (A) (A) (A) (A)
                 (A) (A) (A) (A) (A) (A) (A) (A) (A) (A) (A) (A)
                 (A) (A) (A) (A) (A) (A) (A) (A) (A) (A) (A) (A)
                 (A) (A) (A) (A) (A) (A) (A) (A) (A)
 The electronic state is 1-A.
 Alpha  occ. eigenvalues --  -19.17074 -19.16098 -19.10233 -19.09574 -14.35312
 Alpha  occ. eigenvalues --  -14.35035 -10.27663 -10.27398 -10.24764 -10.24649
 Alpha  occ. eigenvalues --  -10.24462 -10.22677 -10.22592 -10.22177 -10.21770
 Alpha  occ. eigenvalues --  -10.21005 -10.18402 -10.18400 -10.18096 -10.17787
 Alpha  occ. eigenvalues --  -10.17683 -10.17588  -1.05545  -1.03568  -1.02527
 Alpha  occ. eigenvalues --   -1.01764  -0.91427  -0.91192  -0.84342  -0.77813
 Alpha  occ. eigenvalues --   -0.75108  -0.74796  -0.73339  -0.72240  -0.70832
 Alpha  occ. eigenvalues --   -0.69402  -0.67294  -0.66337  -0.62791  -0.60260
 Alpha  occ. eigenvalues --   -0.56975  -0.55429  -0.52859  -0.51686  -0.49885
 Alpha  occ. eigenvalues --   -0.49450  -0.48870  -0.48749  -0.46850  -0.46701
 Alpha  occ. eigenvalues --   -0.46501  -0.45551  -0.44799  -0.44612  -0.44097
 Alpha  occ. eigenvalues --   -0.43484  -0.42909  -0.42320  -0.41465  -0.41093
 Alpha  occ. eigenvalues --   -0.40993  -0.40167  -0.39746  -0.39585  -0.39112
 Alpha  occ. eigenvalues --   -0.38175  -0.37354  -0.37159  -0.36746  -0.35179
 Alpha  occ. eigenvalues --   -0.34894  -0.34209  -0.33477  -0.32938  -0.32571
 Alpha  occ. eigenvalues --   -0.30227  -0.29967  -0.24663  -0.23703  -0.23089
 Alpha  occ. eigenvalues --   -0.22841  -0.22457  -0.19676
 Alpha virt. eigenvalues --    0.00420   0.01487   0.02921   0.03880   0.07217
 Alpha virt. eigenvalues --    0.08121   0.08949   0.09599   0.09919   0.11350
 Alpha virt. eigenvalues --    0.11815   0.12324   0.12754   0.13479   0.13770
 Alpha virt. eigenvalues --    0.14386   0.14857   0.15348   0.15487   0.15589
 Alpha virt. eigenvalues --    0.16176   0.16339   0.16699   0.17094   0.17583
 Alpha virt. eigenvalues --    0.18241   0.18718   0.19068   0.19696   0.19779
 Alpha virt. eigenvalues --    0.19963   0.21017   0.21807   0.23617   0.24029
 Alpha virt. eigenvalues --    0.24156   0.25463   0.26292   0.26762   0.27816
 Alpha virt. eigenvalues --    0.28649   0.32430   0.33242   0.35201   0.36054
 Alpha virt. eigenvalues --    0.36569   0.36913   0.38478   0.40100   0.45799
 Alpha virt. eigenvalues --    0.48426   0.48949   0.49599   0.49797   0.50103
 Alpha virt. eigenvalues --    0.50992   0.51514   0.51954   0.52541   0.53053
 Alpha virt. eigenvalues --    0.54340   0.54905   0.55167   0.55895   0.56065
 Alpha virt. eigenvalues --    0.56855   0.56954   0.57714   0.59282   0.60584
 Alpha virt. eigenvalues --    0.60823   0.61253   0.61715   0.61980   0.62637
 Alpha virt. eigenvalues --    0.63941   0.64216   0.65266   0.65768   0.66766
 Alpha virt. eigenvalues --    0.68158   0.69185   0.69721   0.70882   0.72216
 Alpha virt. eigenvalues --    0.72664   0.74747   0.75057   0.75156   0.75687
 Alpha virt. eigenvalues --    0.78114   0.79648   0.80038   0.80501   0.81206
 Alpha virt. eigenvalues --    0.81574   0.81826   0.82993   0.83312   0.83363
 Alpha virt. eigenvalues --    0.83625   0.84173   0.84355   0.85146   0.85701
 Alpha virt. eigenvalues --    0.86378   0.86864   0.88133   0.88221   0.89305
 Alpha virt. eigenvalues --    0.89551   0.90235   0.90288   0.90718   0.91326
 Alpha virt. eigenvalues --    0.91488   0.92856   0.93651   0.94578   0.95991
 Alpha virt. eigenvalues --    0.96215   0.96950   0.97775   0.98722   0.99726
 Alpha virt. eigenvalues --    1.00446   1.00532   1.01882   1.02247   1.03183
 Alpha virt. eigenvalues --    1.04818   1.06630   1.07993   1.08821   1.09732
 Alpha virt. eigenvalues --    1.11462   1.12662   1.13813   1.15012   1.16250
 Alpha virt. eigenvalues --    1.17748   1.20692   1.23018   1.24159   1.25029
 Alpha virt. eigenvalues --    1.25761   1.26858   1.28706   1.29162   1.30561
 Alpha virt. eigenvalues --    1.31628   1.33717   1.33894   1.34708   1.36017
 Alpha virt. eigenvalues --    1.37536   1.38211   1.39488   1.40391   1.41433
 Alpha virt. eigenvalues --    1.43172   1.44437   1.45444   1.46122   1.48007
 Alpha virt. eigenvalues --    1.50154   1.50527   1.53507   1.55684   1.58305
 Alpha virt. eigenvalues --    1.61530   1.62463   1.63828   1.65467   1.66635
 Alpha virt. eigenvalues --    1.68161   1.69788   1.71811   1.73757   1.74589
 Alpha virt. eigenvalues --    1.74693   1.76455   1.77803   1.78607   1.79011
 Alpha virt. eigenvalues --    1.79551   1.80320   1.81452   1.82832   1.83528
 Alpha virt. eigenvalues --    1.84271   1.85304   1.86229   1.86821   1.86849
 Alpha virt. eigenvalues --    1.87707   1.88594   1.88995   1.89448   1.90002
 Alpha virt. eigenvalues --    1.91096   1.91912   1.92278   1.92482   1.92528
 Alpha virt. eigenvalues --    1.93550   1.94631   1.96290   1.97219   1.97805
 Alpha virt. eigenvalues --    1.98386   1.98873   1.99182   2.00675   2.01208
 Alpha virt. eigenvalues --    2.01987   2.02615   2.02819   2.03187   2.03677
 Alpha virt. eigenvalues --    2.03723   2.04463   2.04938   2.05366   2.05794
 Alpha virt. eigenvalues --    2.06332   2.06593   2.09200   2.10629   2.11185
 Alpha virt. eigenvalues --    2.12008   2.12824   2.14202   2.14593   2.15179
 Alpha virt. eigenvalues --    2.16343   2.16758   2.18915   2.19400   2.21756
 Alpha virt. eigenvalues --    2.22496   2.23180   2.24255   2.25545   2.28001
 Alpha virt. eigenvalues --    2.29437   2.30211   2.31148   2.32185   2.32717
 Alpha virt. eigenvalues --    2.33417   2.34598   2.35428   2.36733   2.37721
 Alpha virt. eigenvalues --    2.37890   2.39436   2.40263   2.43866   2.44594
 Alpha virt. eigenvalues --    2.45733   2.46477   2.48159   2.48779   2.51176
 Alpha virt. eigenvalues --    2.51935   2.53654   2.53776   2.54491   2.55643
 Alpha virt. eigenvalues --    2.56089   2.57331   2.59175   2.59807   2.61112
 Alpha virt. eigenvalues --    2.61532   2.61958   2.62768   2.63253   2.64339
 Alpha virt. eigenvalues --    2.64454   2.65257   2.66754   2.67648   2.68240
 Alpha virt. eigenvalues --    2.69023   2.69484   2.70550   2.72113   2.72585
 Alpha virt. eigenvalues --    2.73398   2.73866   2.76889   2.78213   2.79727
 Alpha virt. eigenvalues --    2.79938   2.81816   2.82724   2.83473   2.83574
 Alpha virt. eigenvalues --    2.84957   2.85545   2.86786   2.87297   2.87779
 Alpha virt. eigenvalues --    2.88290   2.90285   2.91001   2.91651   2.98615
 Alpha virt. eigenvalues --    2.99521   3.01737   3.05728   3.08467   3.09542
 Alpha virt. eigenvalues --    3.11578   3.12007   3.13656   3.14550   3.15952
 Alpha virt. eigenvalues --    3.17761   3.17976   3.22452   3.23290   3.24612
 Alpha virt. eigenvalues --    3.29246   3.31263   3.33389   3.34125   3.39381
 Alpha virt. eigenvalues --    3.39692   3.40057   3.41633   3.41643   3.43051
 Alpha virt. eigenvalues --    3.43107   3.43905   3.45026   3.45253   3.45635
 Alpha virt. eigenvalues --    3.46388   3.47153   3.47955   3.56877   3.76536
          Condensed to atoms (all electrons):
              1          2          3          4          5          6
     1  C    5.135264   0.358468  -0.084782  -0.109907   0.000973  -0.001144
     2  C    0.358468   4.328186   0.642773   0.258830  -0.022637  -0.000674
     3  O   -0.084782   0.642773   7.975977  -0.097925   0.002286  -0.000034
     4  N   -0.109907   0.258830  -0.097925   7.025321   0.271120  -0.055358
     5  C    0.000973  -0.022637   0.002286   0.271120   4.859912   0.344320
     6  C   -0.001144  -0.000674  -0.000034  -0.055358   0.344320   5.089268
     7  C   -0.000073   0.000091   0.000000   0.004147  -0.037880   0.304329
     8  C   -0.000042  -0.000004   0.000000   0.000032  -0.004628  -0.045942
     9  C    0.000000   0.000000   0.000000   0.000001  -0.000067   0.006645
    10  C    0.000000   0.000000   0.000000   0.000000   0.000012   0.000119
    11  O    0.000000   0.000000   0.000000   0.000000   0.000000   0.000000
    12  C    0.000000   0.000000   0.000000   0.000000   0.000000   0.000000
    13  C    0.000000   0.000000   0.000000   0.000001   0.000003   0.005798
    14  O    0.000000   0.000000   0.000000   0.000000   0.000000  -0.000042
    15  C    0.000000   0.000000   0.000000   0.000000   0.000000   0.000001
    16  C   -0.000002   0.000001   0.000000   0.000057  -0.003646  -0.048041
    17  C    0.005857  -0.030494   0.005137   0.295287  -0.032950  -0.001854
    18  C   -0.000185   0.001859   0.001417  -0.045656  -0.000612   0.001675
    19  O   -0.000038   0.005786  -0.000869   0.001062  -0.002537   0.002961
    20  N   -0.000002   0.000167  -0.000177   0.002029  -0.000146   0.000079
    21  C    0.000000  -0.000058  -0.000037   0.000142   0.000011  -0.000003
    22  C    0.000000  -0.000012   0.000002  -0.000056   0.000002  -0.000003
    23  H    0.373011  -0.018123   0.003494   0.003500   0.000227   0.000004
    24  H    0.356979  -0.023546   0.002010   0.002707  -0.000984   0.000534
    25  H    0.356719  -0.021742   0.001443   0.002722  -0.002892   0.000096
    26  H   -0.000315   0.002357  -0.000083  -0.035855   0.377104  -0.052664
    27  H    0.004788  -0.008239   0.000128  -0.032470   0.380087  -0.048082
    28  H   -0.001259   0.001892  -0.000059  -0.000522  -0.035952   0.376738
    29  H    0.000056  -0.000229   0.000004  -0.002277  -0.032493   0.369302
    30  H   -0.000012  -0.000010   0.000000  -0.000027   0.000105  -0.008389
    31  H    0.000000   0.000000   0.000000   0.000000  -0.000001  -0.000171
    32  H    0.000000   0.000000   0.000000   0.000000   0.000000   0.000000
    33  H    0.000000   0.000000   0.000000   0.000000   0.000000   0.000000
    34  H    0.000000   0.000000   0.000000   0.000000   0.000000   0.000000
    35  H    0.000000   0.000000   0.000000   0.000000   0.000000   0.000000
    36  H    0.000000   0.000000   0.000000   0.000000   0.000000   0.000000
    37  H    0.000000   0.000000   0.000000   0.000000   0.000000   0.000000
    38  H    0.000000   0.000000   0.000000  -0.000039   0.000071  -0.008955
    39  H    0.000407  -0.002045   0.012506  -0.038677   0.002062  -0.000079
    40  H   -0.000067   0.004733   0.000584  -0.032481  -0.004425  -0.000754
    41  H    0.000000  -0.000008   0.000001   0.000026  -0.000005  -0.000001
    42  H    0.000000   0.000000   0.000000  -0.000003   0.000000   0.000000
    43  H    0.000000   0.000041   0.000025   0.000042   0.000000   0.000000
    44  H    0.000000  -0.000001   0.000000  -0.000003   0.000000  -0.000003
    45  H    0.000000   0.000005  -0.000001   0.000003   0.000000   0.000000
    46  H    0.000000   0.000000   0.000000   0.000001   0.000000   0.000000
              7          8          9         10         11         12
     1  C   -0.000073  -0.000042   0.000000   0.000000   0.000000   0.000000
     2  C    0.000091  -0.000004   0.000000   0.000000   0.000000   0.000000
     3  O    0.000000   0.000000   0.000000   0.000000   0.000000   0.000000
     4  N    0.004147   0.000032   0.000001   0.000000   0.000000   0.000000
     5  C   -0.037880  -0.004628  -0.000067   0.000012   0.000000   0.000000
     6  C    0.304329  -0.045942   0.006645   0.000119   0.000000   0.000000
     7  C    4.757772   0.546288  -0.018690  -0.032347   0.000021  -0.000015
     8  C    0.546288   4.917533   0.466916  -0.012704   0.004287   0.000377
     9  C   -0.018690   0.466916   5.051698   0.442688  -0.058870  -0.006047
    10  C   -0.032347  -0.012704   0.442688   4.784730   0.272517  -0.039704
    11  O    0.000021   0.004287  -0.058870   0.272517   8.194948   0.267402
    12  C   -0.000015   0.000377  -0.006047  -0.039704   0.267402   4.693512
    13  C   -0.014625  -0.040822  -0.018977   0.425330  -0.048595   0.002574
    14  O    0.002578   0.000098   0.003957  -0.050256  -0.001034  -0.000121
    15  C   -0.000060  -0.000028   0.000331  -0.007338  -0.004805   0.000206
    16  C    0.523157  -0.035339  -0.047936  -0.047898   0.002144  -0.000019
    17  C   -0.000282   0.000000   0.000000   0.000000   0.000000   0.000000
    18  C    0.000062  -0.000001   0.000000   0.000000   0.000000   0.000000
    19  O    0.000294  -0.000002   0.000000   0.000000   0.000000   0.000000
    20  N    0.000001   0.000000   0.000000   0.000000   0.000000   0.000000
    21  C    0.000000   0.000000   0.000000   0.000000   0.000000   0.000000
    22  C    0.000000   0.000000   0.000000   0.000000   0.000000   0.000000
    23  H    0.000001   0.000000   0.000000   0.000000   0.000000   0.000000
    24  H   -0.000102   0.000061   0.000003   0.000000   0.000000   0.000000
    25  H   -0.000011  -0.000007   0.000000   0.000000   0.000000   0.000000
    26  H    0.000734   0.000034   0.000001  -0.000001   0.000000   0.000000
    27  H    0.000851   0.004314  -0.000170  -0.000013   0.000000   0.000000
    28  H   -0.030575  -0.004993   0.000224   0.000016   0.000000   0.000000
    29  H   -0.028618   0.002919  -0.000231   0.000010   0.000000   0.000000
    30  H   -0.041745   0.362132  -0.038305   0.003887  -0.000047  -0.000006
    31  H    0.003677  -0.031824   0.361686  -0.040490  -0.008780   0.004738
    32  H    0.000000   0.000003   0.000125   0.001918  -0.028505   0.392914
    33  H    0.000004  -0.000177   0.004006  -0.002702  -0.036934   0.374051
    34  H    0.000000  -0.000174   0.004055  -0.002651  -0.036765   0.374457
    35  H    0.000001  -0.000001   0.000018   0.000175   0.000590  -0.000023
    36  H    0.000005  -0.000003  -0.000131   0.002683   0.002467   0.000173
    37  H    0.000011  -0.000003  -0.000148   0.002533   0.002367   0.000170
    38  H   -0.045031   0.006142  -0.000324   0.006852  -0.000039   0.000002
    39  H    0.000008   0.000000   0.000000   0.000000   0.000000   0.000000
    40  H    0.000011   0.000000   0.000000   0.000000   0.000000   0.000000
    41  H    0.000000   0.000000   0.000000   0.000000   0.000000   0.000000
    42  H    0.000000   0.000000   0.000000   0.000000   0.000000   0.000000
    43  H    0.000000   0.000000   0.000000   0.000000   0.000000   0.000000
    44  H    0.000000   0.000000   0.000000   0.000000   0.000000   0.000000
    45  H    0.000000   0.000000   0.000000   0.000000   0.000000   0.000000
    46  H    0.000000   0.000000   0.000000   0.000000   0.000000   0.000000
             13         14         15         16         17         18
     1  C    0.000000   0.000000   0.000000  -0.000002   0.005857  -0.000185
     2  C    0.000000   0.000000   0.000000   0.000001  -0.030494   0.001859
     3  O    0.000000   0.000000   0.000000   0.000000   0.005137   0.001417
     4  N    0.000001   0.000000   0.000000   0.000057   0.295287  -0.045656
     5  C    0.000003   0.000000   0.000000  -0.003646  -0.032950  -0.000612
     6  C    0.005798  -0.000042   0.000001  -0.048041  -0.001854   0.001675
     7  C   -0.014625   0.002578  -0.000060   0.523157  -0.000282   0.000062
     8  C   -0.040822   0.000098  -0.000028  -0.035339   0.000000  -0.000001
     9  C   -0.018977   0.003957   0.000331  -0.047936   0.000000   0.000000
    10  C    0.425330  -0.050256  -0.007338  -0.047898   0.000000   0.000000
    11  O   -0.048595  -0.001034  -0.004805   0.002144   0.000000   0.000000
    12  C    0.002574  -0.000121   0.000206  -0.000019   0.000000   0.000000
    13  C    4.661139   0.271908  -0.031408   0.518319   0.000000   0.000000
    14  O    0.271908   8.186540   0.256483  -0.050456   0.000000   0.000000
    15  C   -0.031408   0.256483   4.691069   0.003134   0.000000   0.000000
    16  C    0.518319  -0.050456   0.003134   4.983317  -0.000002  -0.000003
    17  C    0.000000   0.000000   0.000000  -0.000002   5.045827   0.301903
    18  C    0.000000   0.000000   0.000000  -0.000003   0.301903   4.421896
    19  O    0.000000   0.000000   0.000000  -0.000004  -0.085342   0.630965
    20  N    0.000000   0.000000   0.000000   0.000000  -0.103374   0.278566
    21  C    0.000000   0.000000   0.000000   0.000000   0.002301  -0.028471
    22  C    0.000000   0.000000   0.000000   0.000000   0.005457  -0.020240
    23  H    0.000000   0.000000   0.000000   0.000000  -0.000093   0.000001
    24  H    0.000000   0.000000   0.000000   0.000002  -0.000200   0.000005
    25  H    0.000000   0.000000   0.000000   0.000000  -0.000220   0.000008
    26  H   -0.000146  -0.000001   0.000000   0.004145  -0.008418  -0.000472
    27  H   -0.000021   0.000000   0.000000  -0.000137   0.003437  -0.000124
    28  H   -0.000195   0.000000   0.000000   0.003196  -0.000730   0.000260
    29  H    0.000113  -0.000002   0.000000  -0.004597   0.002400   0.000739
    30  H    0.000436   0.000001   0.000000   0.005403   0.000000   0.000000
    31  H    0.002448  -0.000032  -0.000004   0.000863   0.000000   0.000000
    32  H    0.000007  -0.000003   0.000024   0.000004   0.000000   0.000000
    33  H   -0.000154  -0.000001   0.000014  -0.000014   0.000000   0.000000
    34  H   -0.000139  -0.000001   0.000012  -0.000012   0.000000   0.000000
    35  H    0.001058  -0.028845   0.380510  -0.000193   0.000000   0.000000
    36  H   -0.002465  -0.035218   0.381316   0.000093   0.000000   0.000000
    37  H   -0.002397  -0.035028   0.381470   0.000128   0.000000   0.000000
    38  H   -0.036544   0.000884  -0.000203   0.354203   0.000001  -0.000001
    39  H    0.000000   0.000000   0.000000   0.000000   0.362549  -0.033343
    40  H    0.000000   0.000000   0.000000  -0.000002   0.362697  -0.035633
    41  H    0.000000   0.000000   0.000000   0.000000   0.001311  -0.005780
    42  H    0.000000   0.000000   0.000000   0.000000  -0.000107   0.002172
    43  H    0.000000   0.000000   0.000000   0.000000   0.000125  -0.004266
    44  H    0.000000   0.000000   0.000000   0.000000   0.000044  -0.003369
    45  H    0.000000   0.000000   0.000000   0.000000  -0.000001  -0.004401
    46  H    0.000000   0.000000   0.000000   0.000000  -0.000026   0.004299
             19         20         21         22         23         24
     1  C   -0.000038  -0.000002   0.000000   0.000000   0.373011   0.356979
     2  C    0.005786   0.000167  -0.000058  -0.000012  -0.018123  -0.023546
     3  O   -0.000869  -0.000177  -0.000037   0.000002   0.003494   0.002010
     4  N    0.001062   0.002029   0.000142  -0.000056   0.003500   0.002707
     5  C   -0.002537  -0.000146   0.000011   0.000002   0.000227  -0.000984
     6  C    0.002961   0.000079  -0.000003  -0.000003   0.000004   0.000534
     7  C    0.000294   0.000001   0.000000   0.000000   0.000001  -0.000102
     8  C   -0.000002   0.000000   0.000000   0.000000   0.000000   0.000061
     9  C    0.000000   0.000000   0.000000   0.000000   0.000000   0.000003
    10  C    0.000000   0.000000   0.000000   0.000000   0.000000   0.000000
    11  O    0.000000   0.000000   0.000000   0.000000   0.000000   0.000000
    12  C    0.000000   0.000000   0.000000   0.000000   0.000000   0.000000
    13  C    0.000000   0.000000   0.000000   0.000000   0.000000   0.000000
    14  O    0.000000   0.000000   0.000000   0.000000   0.000000   0.000000
    15  C    0.000000   0.000000   0.000000   0.000000   0.000000   0.000000
    16  C   -0.000004   0.000000   0.000000   0.000000   0.000000   0.000002
    17  C   -0.085342  -0.103374   0.002301   0.005457  -0.000093  -0.000200
    18  C    0.630965   0.278566  -0.028471  -0.020240   0.000001   0.000005
    19  O    7.976735  -0.096366   0.002655   0.008815   0.000000   0.000026
    20  N   -0.096366   7.002208   0.293838   0.288661   0.000000   0.000000
    21  C    0.002655   0.293838   4.792221  -0.048544   0.000000   0.000000
    22  C    0.008815   0.288661  -0.048544   4.762741   0.000000   0.000000
    23  H    0.000000   0.000000   0.000000   0.000000   0.537569  -0.020914
    24  H    0.000026   0.000000   0.000000   0.000000  -0.020914   0.588306
    25  H    0.000000   0.000000   0.000000   0.000000  -0.021162  -0.033735
    26  H    0.000025   0.000008   0.000002   0.000000  -0.000006   0.000175
    27  H   -0.000019   0.000001   0.000000   0.000000   0.000030  -0.001450
    28  H    0.001360   0.000007   0.000000   0.000000  -0.000017   0.003256
    29  H    0.004753  -0.000093  -0.000001  -0.000004   0.000000  -0.000055
    30  H    0.000000   0.000000   0.000000   0.000000   0.000000   0.000848
    31  H    0.000000   0.000000   0.000000   0.000000   0.000000   0.000000
    32  H    0.000000   0.000000   0.000000   0.000000   0.000000   0.000000
    33  H    0.000000   0.000000   0.000000   0.000000   0.000000   0.000000
    34  H    0.000000   0.000000   0.000000   0.000000   0.000000   0.000000
    35  H    0.000000   0.000000   0.000000   0.000000   0.000000   0.000000
    36  H    0.000000   0.000000   0.000000   0.000000   0.000000   0.000000
    37  H    0.000000   0.000000   0.000000   0.000000   0.000000   0.000000
    38  H    0.000000   0.000000   0.000000   0.000000   0.000000   0.000000
    39  H    0.001986   0.001243   0.002164  -0.000217  -0.000006  -0.000012
    40  H    0.000429   0.002180  -0.001216  -0.000174   0.000002  -0.000009
    41  H    0.000049  -0.042942   0.385914   0.003464   0.000000   0.000000
    42  H   -0.000079  -0.025854   0.384738  -0.007807   0.000000   0.000000
    43  H    0.000065  -0.047083   0.388829   0.002867   0.000000   0.000000
    44  H    0.004903  -0.041917   0.003589   0.390110   0.000000   0.000000
    45  H    0.003379  -0.045098   0.003067   0.393450   0.000000   0.000000
    46  H    0.000557  -0.030073  -0.007805   0.378029   0.000000   0.000000
             25         26         27         28         29         30
     1  C    0.356719  -0.000315   0.004788  -0.001259   0.000056  -0.000012
     2  C   -0.021742   0.002357  -0.008239   0.001892  -0.000229  -0.000010
     3  O    0.001443  -0.000083   0.000128  -0.000059   0.000004   0.000000
     4  N    0.002722  -0.035855  -0.032470  -0.000522  -0.002277  -0.000027
     5  C   -0.002892   0.377104   0.380087  -0.035952  -0.032493   0.000105
     6  C    0.000096  -0.052664  -0.048082   0.376738   0.369302  -0.008389
     7  C   -0.000011   0.000734   0.000851  -0.030575  -0.028618  -0.041745
     8  C   -0.000007   0.000034   0.004314  -0.004993   0.002919   0.362132
     9  C    0.000000   0.000001  -0.000170   0.000224  -0.000231  -0.038305
    10  C    0.000000  -0.000001  -0.000013   0.000016   0.000010   0.003887
    11  O    0.000000   0.000000   0.000000   0.000000   0.000000  -0.000047
    12  C    0.000000   0.000000   0.000000   0.000000   0.000000  -0.000006
    13  C    0.000000  -0.000146  -0.000021  -0.000195   0.000113   0.000436
    14  O    0.000000  -0.000001   0.000000   0.000000  -0.000002   0.000001
    15  C    0.000000   0.000000   0.000000   0.000000   0.000000   0.000000
    16  C    0.000000   0.004145  -0.000137   0.003196  -0.004597   0.005403
    17  C   -0.000220  -0.008418   0.003437  -0.000730   0.002400   0.000000
    18  C    0.000008  -0.000472  -0.000124   0.000260   0.000739   0.000000
    19  O    0.000000   0.000025  -0.000019   0.001360   0.004753   0.000000
    20  N    0.000000   0.000008   0.000001   0.000007  -0.000093   0.000000
    21  C    0.000000   0.000002   0.000000   0.000000  -0.000001   0.000000
    22  C    0.000000   0.000000   0.000000   0.000000  -0.000004   0.000000
    23  H   -0.021162  -0.000006   0.000030  -0.000017   0.000000   0.000000
    24  H   -0.033735   0.000175  -0.001450   0.003256  -0.000055   0.000848
    25  H    0.591425   0.000136   0.002919   0.000022  -0.000003   0.000007
    26  H    0.000136   0.633940  -0.030479   0.005844  -0.006450   0.000016
    27  H    0.002919  -0.030479   0.614493  -0.004325   0.005645   0.000398
    28  H    0.000022   0.005844  -0.004325   0.597030  -0.031159   0.004447
    29  H   -0.000003  -0.006450   0.005645  -0.031159   0.600333   0.000064
    30  H    0.000007   0.000016   0.000398   0.004447   0.000064   0.641207
    31  H    0.000000   0.000000   0.000003  -0.000006   0.000003  -0.005859
    32  H    0.000000   0.000000   0.000000   0.000000   0.000000   0.000000
    33  H    0.000000   0.000000   0.000000   0.000000   0.000000   0.000003
    34  H    0.000000   0.000000   0.000000   0.000000   0.000000   0.000004
    35  H    0.000000   0.000000   0.000000   0.000000   0.000000   0.000000
    36  H    0.000000   0.000000   0.000000   0.000000   0.000000   0.000000
    37  H    0.000000   0.000000   0.000000   0.000000   0.000000   0.000000
    38  H    0.000000   0.000940   0.000070   0.000069   0.003956  -0.000168
    39  H   -0.000026   0.000607  -0.000147   0.000000   0.000025   0.000000
    40  H   -0.000001   0.005934   0.000261   0.000058   0.000111   0.000000
    41  H    0.000000  -0.000003   0.000000   0.000000   0.000005   0.000000
    42  H    0.000000   0.000000   0.000000   0.000000   0.000000   0.000000
    43  H    0.000000   0.000000   0.000000   0.000000  -0.000001   0.000000
    44  H    0.000000   0.000000   0.000000   0.000000   0.000022   0.000000
    45  H    0.000000   0.000000   0.000000   0.000000  -0.000002   0.000000
    46  H    0.000000   0.000000   0.000000   0.000000   0.000000   0.000000
             31         32         33         34         35         36
     1  C    0.000000   0.000000   0.000000   0.000000   0.000000   0.000000
     2  C    0.000000   0.000000   0.000000   0.000000   0.000000   0.000000
     3  O    0.000000   0.000000   0.000000   0.000000   0.000000   0.000000
     4  N    0.000000   0.000000   0.000000   0.000000   0.000000   0.000000
     5  C   -0.000001   0.000000   0.000000   0.000000   0.000000   0.000000
     6  C   -0.000171   0.000000   0.000000   0.000000   0.000000   0.000000
     7  C    0.003677   0.000000   0.000004   0.000000   0.000001   0.000005
     8  C   -0.031824   0.000003  -0.000177  -0.000174  -0.000001  -0.000003
     9  C    0.361686   0.000125   0.004006   0.004055   0.000018  -0.000131
    10  C   -0.040490   0.001918  -0.002702  -0.002651   0.000175   0.002683
    11  O   -0.008780  -0.028505  -0.036934  -0.036765   0.000590   0.002467
    12  C    0.004738   0.392914   0.374051   0.374457  -0.000023   0.000173
    13  C    0.002448   0.000007  -0.000154  -0.000139   0.001058  -0.002465
    14  O   -0.000032  -0.000003  -0.000001  -0.000001  -0.028845  -0.035218
    15  C   -0.000004   0.000024   0.000014   0.000012   0.380510   0.381316
    16  C    0.000863   0.000004  -0.000014  -0.000012  -0.000193   0.000093
    17  C    0.000000   0.000000   0.000000   0.000000   0.000000   0.000000
    18  C    0.000000   0.000000   0.000000   0.000000   0.000000   0.000000
    19  O    0.000000   0.000000   0.000000   0.000000   0.000000   0.000000
    20  N    0.000000   0.000000   0.000000   0.000000   0.000000   0.000000
    21  C    0.000000   0.000000   0.000000   0.000000   0.000000   0.000000
    22  C    0.000000   0.000000   0.000000   0.000000   0.000000   0.000000
    23  H    0.000000   0.000000   0.000000   0.000000   0.000000   0.000000
    24  H    0.000000   0.000000   0.000000   0.000000   0.000000   0.000000
    25  H    0.000000   0.000000   0.000000   0.000000   0.000000   0.000000
    26  H    0.000000   0.000000   0.000000   0.000000   0.000000   0.000000
    27  H    0.000003   0.000000   0.000000   0.000000   0.000000   0.000000
    28  H   -0.000006   0.000000   0.000000   0.000000   0.000000   0.000000
    29  H    0.000003   0.000000   0.000000   0.000000   0.000000   0.000000
    30  H   -0.005859   0.000000   0.000003   0.000004   0.000000   0.000000
    31  H    0.623554  -0.000121   0.001869   0.001833   0.000000   0.000002
    32  H   -0.000121   0.581145  -0.035717  -0.035432  -0.000005   0.000007
    33  H    0.001869  -0.035717   0.633869  -0.048479   0.000001  -0.000015
    34  H    0.001833  -0.035432  -0.048479   0.631452   0.000001   0.000015
    35  H    0.000000  -0.000005   0.000001   0.000001   0.615909  -0.038414
    36  H    0.000002   0.000007  -0.000015   0.000015  -0.038414   0.617357
    37  H    0.000001   0.000007   0.000014  -0.000014  -0.038061  -0.040467
    38  H    0.000012   0.000000   0.000000   0.000000  -0.000045   0.000030
    39  H    0.000000   0.000000   0.000000   0.000000   0.000000   0.000000
    40  H    0.000000   0.000000   0.000000   0.000000   0.000000   0.000000
    41  H    0.000000   0.000000   0.000000   0.000000   0.000000   0.000000
    42  H    0.000000   0.000000   0.000000   0.000000   0.000000   0.000000
    43  H    0.000000   0.000000   0.000000   0.000000   0.000000   0.000000
    44  H    0.000000   0.000000   0.000000   0.000000   0.000000   0.000000
    45  H    0.000000   0.000000   0.000000   0.000000   0.000000   0.000000
    46  H    0.000000   0.000000   0.000000   0.000000   0.000000   0.000000
             37         38         39         40         41         42
     1  C    0.000000   0.000000   0.000407  -0.000067   0.000000   0.000000
     2  C    0.000000   0.000000  -0.002045   0.004733  -0.000008   0.000000
     3  O    0.000000   0.000000   0.012506   0.000584   0.000001   0.000000
     4  N    0.000000  -0.000039  -0.038677  -0.032481   0.000026  -0.000003
     5  C    0.000000   0.000071   0.002062  -0.004425  -0.000005   0.000000
     6  C    0.000000  -0.008955  -0.000079  -0.000754  -0.000001   0.000000
     7  C    0.000011  -0.045031   0.000008   0.000011   0.000000   0.000000
     8  C   -0.000003   0.006142   0.000000   0.000000   0.000000   0.000000
     9  C   -0.000148  -0.000324   0.000000   0.000000   0.000000   0.000000
    10  C    0.002533   0.006852   0.000000   0.000000   0.000000   0.000000
    11  O    0.002367  -0.000039   0.000000   0.000000   0.000000   0.000000
    12  C    0.000170   0.000002   0.000000   0.000000   0.000000   0.000000
    13  C   -0.002397  -0.036544   0.000000   0.000000   0.000000   0.000000
    14  O   -0.035028   0.000884   0.000000   0.000000   0.000000   0.000000
    15  C    0.381470  -0.000203   0.000000   0.000000   0.000000   0.000000
    16  C    0.000128   0.354203   0.000000  -0.000002   0.000000   0.000000
    17  C    0.000000   0.000001   0.362549   0.362697   0.001311  -0.000107
    18  C    0.000000  -0.000001  -0.033343  -0.035633  -0.005780   0.002172
    19  O    0.000000   0.000000   0.001986   0.000429   0.000049  -0.000079
    20  N    0.000000   0.000000   0.001243   0.002180  -0.042942  -0.025854
    21  C    0.000000   0.000000   0.002164  -0.001216   0.385914   0.384738
    22  C    0.000000   0.000000  -0.000217  -0.000174   0.003464  -0.007807
    23  H    0.000000   0.000000  -0.000006   0.000002   0.000000   0.000000
    24  H    0.000000   0.000000  -0.000012  -0.000009   0.000000   0.000000
    25  H    0.000000   0.000000  -0.000026  -0.000001   0.000000   0.000000
    26  H    0.000000   0.000940   0.000607   0.005934  -0.000003   0.000000
    27  H    0.000000   0.000070  -0.000147   0.000261   0.000000   0.000000
    28  H    0.000000   0.000069   0.000000   0.000058   0.000000   0.000000
    29  H    0.000000   0.003956   0.000025   0.000111   0.000005   0.000000
    30  H    0.000000  -0.000168   0.000000   0.000000   0.000000   0.000000
    31  H    0.000001   0.000012   0.000000   0.000000   0.000000   0.000000
    32  H    0.000007   0.000000   0.000000   0.000000   0.000000   0.000000
    33  H    0.000014   0.000000   0.000000   0.000000   0.000000   0.000000
    34  H   -0.000014   0.000000   0.000000   0.000000   0.000000   0.000000
    35  H   -0.038061  -0.000045   0.000000   0.000000   0.000000   0.000000
    36  H   -0.040467   0.000030   0.000000   0.000000   0.000000   0.000000
    37  H    0.616150   0.000029   0.000000   0.000000   0.000000   0.000000
    38  H    0.000029   0.629672   0.000000   0.000047   0.000000   0.000000
    39  H    0.000000   0.000000   0.573727  -0.025729  -0.001396   0.000154
    40  H    0.000000   0.000047  -0.025729   0.600754   0.002678   0.000004
    41  H    0.000000   0.000000  -0.001396   0.002678   0.609897  -0.026595
    42  H    0.000000   0.000000   0.000154   0.000004  -0.026595   0.582065
    43  H    0.000000   0.000000   0.002584  -0.000304  -0.042703  -0.030032
    44  H    0.000000   0.000000  -0.000009   0.000012   0.000025   0.000377
    45  H    0.000000   0.000000   0.000002  -0.000009  -0.000298  -0.000036
    46  H    0.000000   0.000000  -0.000005   0.000002   0.000348   0.004253
             43         44         45         46
     1  C    0.000000   0.000000   0.000000   0.000000
     2  C    0.000041  -0.000001   0.000005   0.000000
     3  O    0.000025   0.000000  -0.000001   0.000000
     4  N    0.000042  -0.000003   0.000003   0.000001
     5  C    0.000000   0.000000   0.000000   0.000000
     6  C    0.000000  -0.000003   0.000000   0.000000
     7  C    0.000000   0.000000   0.000000   0.000000
     8  C    0.000000   0.000000   0.000000   0.000000
     9  C    0.000000   0.000000   0.000000   0.000000
    10  C    0.000000   0.000000   0.000000   0.000000
    11  O    0.000000   0.000000   0.000000   0.000000
    12  C    0.000000   0.000000   0.000000   0.000000
    13  C    0.000000   0.000000   0.000000   0.000000
    14  O    0.000000   0.000000   0.000000   0.000000
    15  C    0.000000   0.000000   0.000000   0.000000
    16  C    0.000000   0.000000   0.000000   0.000000
    17  C    0.000125   0.000044  -0.000001  -0.000026
    18  C   -0.004266  -0.003369  -0.004401   0.004299
    19  O    0.000065   0.004903   0.003379   0.000557
    20  N   -0.047083  -0.041917  -0.045098  -0.030073
    21  C    0.388829   0.003589   0.003067  -0.007805
    22  C    0.002867   0.390110   0.393450   0.378029
    23  H    0.000000   0.000000   0.000000   0.000000
    24  H    0.000000   0.000000   0.000000   0.000000
    25  H    0.000000   0.000000   0.000000   0.000000
    26  H    0.000000   0.000000   0.000000   0.000000
    27  H    0.000000   0.000000   0.000000   0.000000
    28  H    0.000000   0.000000   0.000000   0.000000
    29  H   -0.000001   0.000022  -0.000002   0.000000
    30  H    0.000000   0.000000   0.000000   0.000000
    31  H    0.000000   0.000000   0.000000   0.000000
    32  H    0.000000   0.000000   0.000000   0.000000
    33  H    0.000000   0.000000   0.000000   0.000000
    34  H    0.000000   0.000000   0.000000   0.000000
    35  H    0.000000   0.000000   0.000000   0.000000
    36  H    0.000000   0.000000   0.000000   0.000000
    37  H    0.000000   0.000000   0.000000   0.000000
    38  H    0.000000   0.000000   0.000000   0.000000
    39  H    0.002584  -0.000009   0.000002  -0.000005
    40  H   -0.000304   0.000012  -0.000009   0.000002
    41  H   -0.042703   0.000025  -0.000298   0.000348
    42  H   -0.030032   0.000377  -0.000036   0.004253
    43  H    0.596831  -0.000308   0.000560   0.000103
    44  H   -0.000308   0.581458  -0.036537  -0.030155
    45  H    0.000560  -0.036537   0.584584  -0.032829
    46  H    0.000103  -0.030155  -0.032829   0.612792
 Mulliken atomic charges:
              1
     1  C   -0.394693
     2  C    0.522634
     3  O   -0.463821
     4  N   -0.415776
     5  C   -0.056440
     6  C   -0.229675
     7  C    0.106013
     8  C   -0.134444
     9  C   -0.152458
    10  C    0.292636
    11  O   -0.522368
    12  C   -0.064643
    13  C    0.307354
    14  O   -0.521409
    15  C   -0.050725
    16  C   -0.159865
    17  C   -0.130239
    18  C    0.536731
    19  O   -0.461549
    20  N   -0.435862
    21  C   -0.173336
    22  C   -0.156541
    23  H    0.142481
    24  H    0.126093
    25  H    0.124303
    26  H    0.102891
    27  H    0.108246
    28  H    0.115374
    29  H    0.115757
    30  H    0.075609
    31  H    0.086597
    32  H    0.123632
    33  H    0.110363
    34  H    0.111838
    35  H    0.107324
    36  H    0.112566
    37  H    0.113237
    38  H    0.088367
    39  H    0.141667
    40  H    0.120308
    41  H    0.116011
    42  H    0.116751
    43  H    0.132625
    44  H    0.131763
    45  H    0.134164
    46  H    0.100509
 Sum of Mulliken atomic charges =   0.00000
 Mulliken charges with hydrogens summed into heavy atoms:
              1
     1  C   -0.001816
     2  C    0.522634
     3  O   -0.463821
     4  N   -0.415776
     5  C    0.154698
     6  C    0.001456
     7  C    0.106013
     8  C   -0.058835
     9  C   -0.065861
    10  C    0.292636
    11  O   -0.522368
    12  C    0.281190
    13  C    0.307354
    14  O   -0.521409
    15  C    0.282402
    16  C   -0.071498
    17  C    0.131735
    18  C    0.536731
    19  O   -0.461549
    20  N   -0.435862
    21  C    0.192050
    22  C    0.209896
 Sum of Mulliken charges with hydrogens summed into heavy atoms =   0.00000
 Electronic spatial extent (au):  <R**2>=          11374.7680
 Charge=              0.0000 electrons
 Dipole moment (field-independent basis, Debye):
    X=             -3.1702    Y=             -1.6266    Z=             -1.7895  Tot=              3.9873
 Quadrupole moment (field-independent basis, Debye-Ang):
   XX=           -106.9029   YY=           -121.9640   ZZ=           -132.9191
   XY=            -25.7288   XZ=             -6.5757   YZ=              3.8985
 Traceless Quadrupole moment (field-independent basis, Debye-Ang):
   XX=             13.6924   YY=             -1.3687   ZZ=            -12.3238
   XY=            -25.7288   XZ=             -6.5757   YZ=              3.8985
 Octapole moment (field-independent basis, Debye-Ang**2):
  XXX=           -151.4715  YYY=             -6.9202  ZZZ=             -7.4572  XYY=            -10.4017
  XXY=            -99.0551  XXZ=              4.8315  XZZ=              0.7179  YZZ=             -5.0470
  YYZ=              5.7614  XYZ=             -6.1787
 Hexadecapole moment (field-independent basis, Debye-Ang**3):
 XXXX=          -9925.6753 YYYY=          -2274.7355 ZZZZ=           -688.4959 XXXY=           -693.1622
 XXXZ=            -29.6289 YYYX=            -21.1552 YYYZ=             14.8558 ZZZX=             15.5561
 ZZZY=             -3.7271 XXYY=          -2146.3295 XXZZ=          -2028.4294 YYZZ=           -492.6239
 XXYZ=             96.6720 YYXZ=             44.8232 ZZXY=             -7.4928
 N-N= 1.783797272146D+03 E-N=-5.979454602637D+03  KE= 1.026806446678D+03
 Merz-Kollman atomic radii used.

 **********************************************************************

            Electrostatic Properties Using The SCF Density

 **********************************************************************

       Atomic Center    1 is at   1.957056  3.516677 -0.301076
       Atomic Center    2 is at   2.823242  2.291180 -0.572945
       Atomic Center    3 is at   4.033973  2.404577 -0.597183
       Atomic Center    4 is at   2.219972  1.036370 -0.789792
       Atomic Center    5 is at   0.754973  0.840575 -0.832261
       Atomic Center    6 is at   0.140081  0.360172  0.501180
       Atomic Center    7 is at  -1.378326  0.258726  0.411219
       Atomic Center    8 is at  -2.187539  1.328206  0.828936
       Atomic Center    9 is at  -3.587076  1.243907  0.738536
       Atomic Center   10 is at  -4.208631  0.078763  0.223441
       Atomic Center   11 is at  -5.589244  0.002646  0.136474
       Atomic Center   12 is at  -6.457334  1.060570  0.561229
       Atomic Center   13 is at  -3.382690 -1.010049 -0.205074
       Atomic Center   14 is at  -3.835413 -2.210770 -0.733247
       Atomic Center   15 is at  -5.216232 -2.543331 -0.913260
       Atomic Center   16 is at  -1.985316 -0.900080 -0.104681
       Atomic Center   17 is at   3.085955 -0.160624 -0.941073
       Atomic Center   18 is at   3.666884 -0.707064  0.392257
       Atomic Center   19 is at   3.221811 -0.342057  1.469965
       Atomic Center   20 is at   4.678535 -1.689526  0.333423
       Atomic Center   21 is at   5.295871 -2.091773 -0.943296
       Atomic Center   22 is at   5.236048 -2.239886  1.582464
       Atomic Center   23 is at   2.566294  4.394289 -0.058969
       Atomic Center   24 is at   1.238702  3.289997  0.492480
       Atomic Center   25 is at   1.325329  3.709947 -1.173854
       Atomic Center   26 is at   0.536128  0.094627 -1.606696
       Atomic Center   27 is at   0.262584  1.766346 -1.148521
       Atomic Center   28 is at   0.426892  1.051725  1.302903
       Atomic Center   29 is at   0.563007 -0.617214  0.763188
       Atomic Center   30 is at  -1.730006  2.230807  1.227955
       Atomic Center   31 is at  -4.170807  2.093798  1.075228
       Atomic Center   32 is at  -7.504051  0.775477  0.400073
       Atomic Center   33 is at  -6.260666  1.976561 -0.009787
       Atomic Center   34 is at  -6.320199  1.269288  1.629598
       Atomic Center   35 is at  -5.303860 -3.549653 -1.340200
       Atomic Center   36 is at  -5.698874 -1.841526 -1.604402
       Atomic Center   37 is at  -5.746681 -2.537242  0.046811
       Atomic Center   38 is at  -1.373734 -1.735501 -0.432357
       Atomic Center   39 is at   3.915093  0.090111 -1.614030
       Atomic Center   40 is at   2.515664 -0.969627 -1.414241
       Atomic Center   41 is at   4.518517 -2.432500 -1.638357
       Atomic Center   42 is at   6.009306 -2.910208 -0.787080
       Atomic Center   43 is at   5.826396 -1.236190 -1.379082
       Atomic Center   44 is at   4.428864 -2.678452  2.182330
       Atomic Center   45 is at   5.717074 -1.435884  2.153282
       Atomic Center   46 is at   5.978669 -3.017874  1.366663
    1799 points will be used for fitting atomic charges
 Fitting point charges to electrostatic potential
 Charges from ESP fit, RMS=   0.00123 RRMS=   0.07374:
 Charge=   0.00000 Dipole=    -3.1297    -1.6118    -1.7930 Tot=     3.9507
              1
     1  C   -0.530569
     2  C    0.723639
     3  O   -0.538986
     4  N   -0.368721
     5  C   -0.061884
     6  C    0.018260
     7  C    0.025343
     8  C   -0.182989
     9  C   -0.258698
    10  C    0.186588
    11  O   -0.222365
    12  C   -0.122531
    13  C    0.269851
    14  O   -0.316166
    15  C    0.014148
    16  C   -0.349605
    17  C   -0.134940
    18  C    0.526718
    19  O   -0.498464
    20  N   -0.108301
    21  C   -0.225302
    22  C   -0.247617
    23  H    0.158574
    24  H    0.153726
    25  H    0.132280
    26  H    0.089430
    27  H    0.067045
    28  H    0.034849
    29  H    0.064889
    30  H    0.129904
    31  H    0.150875
    32  H    0.104863
    33  H    0.084736
    34  H    0.088280
    35  H    0.072581
    36  H    0.044236
    37  H    0.048916
    38  H    0.164692
    39  H    0.091279
    40  H    0.117606
    41  H    0.060624
    42  H    0.125449
    43  H    0.096925
    44  H    0.093353
    45  H    0.111672
    46  H    0.115806
 Charges from ESP fit with hydrogens summed into heavy atoms:
              1
     1  C   -0.085989
     2  C    0.723639
     3  O   -0.538986
     4  N   -0.368721
     5  C    0.094591
     6  C    0.117999
     7  C    0.025343
     8  C   -0.053085
     9  C   -0.107823
    10  C    0.186588
    11  O   -0.222365
    12  C    0.155348
    13  C    0.269851
    14  O   -0.316166
    15  C    0.179882
    16  C   -0.184913
    17  C    0.073945
    18  C    0.526718
    19  O   -0.498464
    20  N   -0.108301
    21  C    0.057696
    22  C    0.073214
    23  H    0.000000
    24  H    0.000000
    25  H    0.000000
    26  H    0.000000
    27  H    0.000000
    28  H    0.000000
    29  H    0.000000
    30  H    0.000000
    31  H    0.000000
    32  H    0.000000
    33  H    0.000000
    34  H    0.000000
    35  H    0.000000
    36  H    0.000000
    37  H    0.000000
    38  H    0.000000
    39  H    0.000000
    40  H    0.000000
    41  H    0.000000
    42  H    0.000000
    43  H    0.000000
    44  H    0.000000
    45  H    0.000000
    46  H    0.000000
 -----------------------------------------------------------------

              Electrostatic Properties (Atomic Units)

 -----------------------------------------------------------------
    Center     Electric         -------- Electric Field --------
               Potential          X             Y             Z
 -----------------------------------------------------------------
    1 Atom    -14.758883
    2 Atom    -14.665232
    3 Atom    -22.384013
    4 Atom    -18.344062
    5 Atom    -14.719962
    6 Atom    -14.763617
    7 Atom    -14.758409
    8 Atom    -14.765899
    9 Atom    -14.758290
   10 Atom    -14.690041
   11 Atom    -22.302709
   12 Atom    -14.691048
   13 Atom    -14.691738
   14 Atom    -22.313045
   15 Atom    -14.709898
   16 Atom    -14.765305
   17 Atom    -14.710566
   18 Atom    -14.662783
   19 Atom    -22.377622
   20 Atom    -18.340644
   21 Atom    -14.715035
   22 Atom    -14.726408
   23 Atom     -1.114847
   24 Atom     -1.112429
   25 Atom     -1.109764
   26 Atom     -1.119404
   27 Atom     -1.115978
   28 Atom     -1.134839
   29 Atom     -1.135606
   30 Atom     -1.117353
   31 Atom     -1.105771
   32 Atom     -1.096830
   33 Atom     -1.105479
   34 Atom     -1.105553
   35 Atom     -1.116538
   36 Atom     -1.125887
   37 Atom     -1.125810
   38 Atom     -1.113181
   39 Atom     -1.109012
   40 Atom     -1.093625
   41 Atom     -1.107183
   42 Atom     -1.096602
   43 Atom     -1.111522
   44 Atom     -1.123437
   45 Atom     -1.125363
   46 Atom     -1.107306
 -----------------------------------------------------------------
 1\1\GINC-C07\SP\RB3LYP\6-31G(d,p)\C16H24N2O4\TUU61186\04-Mar-2026\0\\#
 # b3lyp/6-31g** maxdisk=16GB, pop=(minimal, MK), 5d\\Generated by mdgx
 \\0,1\C,0,17.1667166,12.3563379,16.7886357\C,0,17.6299074,13.5099945,1
 5.9051395\O,0,18.2612818,13.2752373,14.8924342\N,0,17.3219885,14.83793
 33,16.2618864\C,0,16.6103156,15.1957321,17.5076242\C,0,15.0898434,15.4
 059485,17.3317871\C,0,14.4076852,15.6899036,18.6651931\C,0,13.8226225,
 14.6456049,19.4002056\C,0,13.2017397,14.9002437,20.6345656\C,0,13.1548
 164,16.215204,21.1617212\O,0,12.5415471,16.4590753,22.3798661\C,0,11.9
 198007,15.4306163,23.1601887\C,0,13.7542663,17.2789312,20.4130828\O,0,
 13.7955694,18.6130584,20.7926253\C,0,13.221406,19.1266742,21.999356\C,
 0,14.3695835,16.9973635,19.1814455\C,0,17.6861835,15.9351865,15.329681
 9\C,0,16.7407028,16.0795823,14.1053218\O,0,15.6564412,15.5171459,14.07
 674\N,0,17.1308752,16.9319106,13.0501284\C,0,18.4642223,17.5593489,13.
 0123943\C,0,16.2455918,17.1028429,11.8835622\H,0,17.396204,11.3855899,
 16.3358963\H,0,16.0987183,12.462495,17.0013785\H,0,17.6365066,12.44768
 65,17.7730781\H,0,17.0492451,16.1248571,17.8925238\H,0,16.7870005,14.4
 318153,18.2723031\H,0,14.6521752,14.515391,16.8642199\H,0,14.9175118,1
 6.2401998,16.6410446\H,0,13.8472498,13.6295449,19.0125763\H,0,12.76178
 05,14.0627979,21.1651681\H,0,11.5005198,15.8577167,24.0792387\H,0,12.6
 506868,14.662592,23.4425391\H,0,11.1038012,14.9581212,22.5992296\H,0,1
 3.3853742,20.209419,22.0578164\H,0,13.6888911,18.6676966,22.8790992\H,
 0,12.1394315,18.9479685,22.0226918\H,0,14.817734,17.8156692,18.6256857
 \H,0,18.7087988,15.7648921,14.9712602\H,0,17.6847594,16.8909528,15.868
 3066\H,0,18.6258263,18.1390112,13.9296497\H,0,18.5499661,18.2341568,12
 .1518646\H,0,19.2330055,16.7809927,12.931628\H,0,15.2666763,17.4695009
 ,12.2167458\H,0,16.1187924,16.138149,11.3766836\H,0,16.6710378,17.8247
 081,11.1755867\\Version=EM64L-G09RevC.01\State=1-A\HF=-1034.5422821\RM
 SD=4.552e-09\Dipole=-0.1080442,0.9214155,1.2649964\Quadrupole=-3.96990
 61,-4.2660973,8.2360034,9.4995712,-10.541056,-15.5005222\PG=C01 [X(C16
 H24N2O4)]\\@


 NO MATTER HOW THIN YOU SLICE IT, IT'S STILL BALONEY

                                   -- ALFRED E. SMITH
 Job cpu time:  0 days  0 hours  3 minutes 45.9 seconds.
 File lengths (MBytes):  RWF=    105 Int=      0 D2E=      0 Chk=      8 Scr=      1
 Normal termination of Gaussian 09 at Wed Mar  4 21:04:48 2026.
