44
 energy: -57.284706862727 gnorm: 0.000663850333 xtb: 6.7.1 (edcfbbe)
C            2.74549778482401        4.67777958976065       -1.73038568023521
C            3.11234189391146        3.43873560240345       -2.51650388946194
O            3.49443696641630        3.51268708512255       -3.67178823102524
N            2.99331341236464        2.23271866083961       -1.90267854377357
C            2.52071000436282        2.03862069528312       -0.53922581737030
C            3.30489167963523        0.94339139211610        0.18310654240398
C            0.98413236065227        1.83925056097310       -0.51459463213669
C            0.46115628050906        1.76448954358633        0.92157171056177
C           -1.06404433316604        1.71949720168949        0.93689544771132
C           -1.56341629306754        0.51496288061814        0.14589717844372
C           -1.03776310771496        0.56995627796324       -1.28458886136515
C            0.48896173406643        0.62515279741625       -1.30182716216097
C            3.48522271636550        1.11881080325447       -2.68844545283464
C            5.01930938851204        1.12440997855555       -2.69048999067916
O            5.64991750533718        1.68386129975993       -1.81304176092590
N            5.61641052676665        0.44381695211014       -3.69148432517087
C            4.90645152758867       -0.19744499516928       -4.77260400531636
C            7.05550023163354        0.50335463544699       -3.82023741524748
H            2.81132381327059        5.52811319356063       -2.40390142307403
H            3.45482285711102        4.82142635936503       -0.91807439327217
H            1.73981413760116        4.62132367281624       -1.32324392959995
H            2.72638125435200        2.96756568088585        0.00131769735365
H            2.98940303283921       -0.05632436784846       -0.10198083276927
H            3.17290757347194        1.04804201295598        1.25621072997115
H            4.36173544486153        1.06014126693924       -0.04237507813604
H            0.54437515185293        2.72576711106737       -0.98780963129880
H            0.81346015243800        2.62825873175542        1.48992668258969
H            0.84392431519371        0.86389688943414        1.40389753183704
H           -1.46161692514825        2.63517642982328        0.49307312687047
H           -1.42209762333434        1.66475694756327        1.96704482842432
H           -2.65511781616293        0.49628873062901        0.14121554223557
H           -1.21496263927469       -0.40269732639657        0.62581977056070
H           -1.43569129329791        1.45805789908986       -1.78139202648830
H           -1.38043233516809       -0.30472033592643       -1.84191652318582
H            0.82951644103466        0.68944229292683       -2.33626161786217
H            0.88084685323500       -0.29439791404709       -0.86222130898363
H            3.11911993059847        1.24837650960571       -3.71001889306590
H            3.12556386691245        0.17674328713958       -2.27912917586596
H            4.54206980469103        0.53375391976305       -5.50068368222169
H            4.06399878105550       -0.77830067218895       -4.39868504257144
H            5.59021040299972       -0.87701846728459       -5.27860677340711
H            7.44389776423037        1.07914967766296       -2.98266610090563
H            7.33497342672151        0.99347278556511       -4.75515555563737
H            7.48064334892769       -0.50264527656643       -3.79795903292682
