44
 energy: -57.285992129631 gnorm: 0.000561700426 xtb: 6.7.1 (edcfbbe)
C            2.81864156534815        4.37488432541935       -2.05952804305742
C            3.19691223178036        3.04118280857521       -2.66449238699380
O            3.62151897333377        2.96891493248395       -3.80811636517547
N            3.05686453296446        1.92657862394470       -1.90933485602511
C            2.51437319647245        1.91165766681430       -0.55604444567171
C            3.23539599856898        0.90173286838315        0.33639802614930
C            0.97456386102668        1.74492967763335       -0.58542001677009
C            0.38065866149094        1.90111052281964        0.81622633375607
C           -1.14428418858032        1.87994424041818        0.75952121870896
C           -1.63340108751425        0.57825656635483        0.13289418100726
C           -1.03536399931600        0.40488526005870       -1.25929507929993
C            0.49074029566891        0.43166680696273       -1.20195037077869
C            3.53677572345920        0.70515293164421       -2.53801672413312
C            5.06980765547481        0.74857090007535       -2.61230504494483
O            5.71628202966875        0.93248661367050       -1.59190828945011
N            5.65448594554088        0.54318161438916       -3.80542352617171
C            4.94555028370373        0.43873626174364       -5.06292932677334
C            7.09752463429441        0.60151561438930       -3.88878023798162
H            2.92866638680615        5.13089293092568       -2.83280088621241
H            3.49218051237613        4.61527508863785       -1.23909019855960
H            1.79499635762622        4.38262402757416       -1.69608132645887
H            2.71675586027037        2.89910709359812       -0.12971739585581
H            2.85466202170163       -0.10867301115679        0.21552086998968
H            3.11543729169944        1.18557094961341        1.37814935509280
H            4.29695532942994        0.90743150873982        0.09781920778440
H            0.57988054736287        2.55524605247787       -1.21083084333265
H            0.72171297873797        2.83890461685948        1.26119938354074
H            0.72273542344095        1.08272371573433        1.45131621024613
H           -1.49947350667507        2.72462998657277        0.16439833532884
H           -1.55280652096081        1.98598025050084        1.76662684717675
H           -2.72351774728299        0.57941717400236        0.07223619593764
H           -1.33404722009937       -0.26194265359782        0.76369989209536
H           -1.38730062675083        1.21161551093163       -1.90688801079078
H           -1.36990279312046       -0.53991085526537       -1.69336781322791
H            0.88785427121514        0.32617096642029       -2.21232417787448
H            0.83522417459833       -0.41464295543470       -0.60475020106986
H            3.08249639984212        0.61685299668358       -3.52454783336833
H            3.25785927621151       -0.14927702619439       -1.92539592085479
H            4.30880564171551        1.31289299535115       -5.21067306100440
H            4.34523031050852       -0.47323921119216       -5.10535379986970
H            5.67590830576100        0.40279715727238       -5.86748675456610
H            7.49307061038053        0.68300537257989       -2.87834108370623
H            7.41208677309813        1.47237669850466       -4.46773407152872
H            7.48249362873059       -0.30516761587539       -4.35946796531808
