 Entering Gaussian System, Link 0=/data/opt/apps/g09-C01/g09
 Initial command:
 /data/opt/apps/g09-C01/l1.exe /tmp/g09-tuu61186-30867131d2522e228x/Gau-3086832.inp -scrdir=/tmp/g09-tuu61186-30867131d2522e228x/
 Entering Link 1 = /data/opt/apps/g09-C01/l1.exe PID=   3086838.
  
 Copyright (c) 1988,1990,1992,1993,1995,1998,2003,2009,2011,
            Gaussian, Inc.  All Rights Reserved.
  
 This is part of the Gaussian(R) 09 program.  It is based on
 the Gaussian(R) 03 system (copyright 2003, Gaussian, Inc.),
 the Gaussian(R) 98 system (copyright 1998, Gaussian, Inc.),
 the Gaussian(R) 94 system (copyright 1995, Gaussian, Inc.),
 the Gaussian 92(TM) system (copyright 1992, Gaussian, Inc.),
 the Gaussian 90(TM) system (copyright 1990, Gaussian, Inc.),
 the Gaussian 88(TM) system (copyright 1988, Gaussian, Inc.),
 the Gaussian 86(TM) system (copyright 1986, Carnegie Mellon
 University), and the Gaussian 82(TM) system (copyright 1983,
 Carnegie Mellon University). Gaussian is a federally registered
 trademark of Gaussian, Inc.
  
 This software contains proprietary and confidential information,
 including trade secrets, belonging to Gaussian, Inc.
  
 This software is provided under written license and may be
 used, copied, transmitted, or stored only in accord with that
 written license.
  
 The following legend is applicable only to US Government
 contracts under FAR:
  
                    RESTRICTED RIGHTS LEGEND
  
 Use, reproduction and disclosure by the US Government is
 subject to restrictions as set forth in subparagraphs (a)
 and (c) of the Commercial Computer Software - Restricted
 Rights clause in FAR 52.227-19.
  
 Gaussian, Inc.
 340 Quinnipiac St., Bldg. 40, Wallingford CT 06492
  
  
 ---------------------------------------------------------------
 Warning -- This program may not be used in any manner that
 competes with the business of Gaussian, Inc. or will provide
 assistance to any competitor of Gaussian, Inc.  The licensee
 of this program is prohibited from giving any competitor of
 Gaussian, Inc. access to this program.  By using this program,
 the user acknowledges that Gaussian, Inc. is engaged in the
 business of creating and licensing software in the field of
 computational chemistry and represents and warrants to the
 licensee that it is not a competitor of Gaussian, Inc. and that
 it will not use this program in any manner prohibited above.
 ---------------------------------------------------------------
  

 Cite this work as:
 Gaussian 09, Revision C.01,
 M. J. Frisch, G. W. Trucks, H. B. Schlegel, G. E. Scuseria, 
 M. A. Robb, J. R. Cheeseman, G. Scalmani, V. Barone, B. Mennucci, 
 G. A. Petersson, H. Nakatsuji, M. Caricato, X. Li, H. P. Hratchian, 
 A. F. Izmaylov, J. Bloino, G. Zheng, J. L. Sonnenberg, M. Hada, 
 M. Ehara, K. Toyota, R. Fukuda, J. Hasegawa, M. Ishida, T. Nakajima, 
 Y. Honda, O. Kitao, H. Nakai, T. Vreven, J. A. Montgomery, Jr., 
 J. E. Peralta, F. Ogliaro, M. Bearpark, J. J. Heyd, E. Brothers, 
 K. N. Kudin, V. N. Staroverov, T. Keith, R. Kobayashi, J. Normand, 
 K. Raghavachari, A. Rendell, J. C. Burant, S. S. Iyengar, J. Tomasi, 
 M. Cossi, N. Rega, J. M. Millam, M. Klene, J. E. Knox, J. B. Cross, 
 V. Bakken, C. Adamo, J. Jaramillo, R. Gomperts, R. E. Stratmann, 
 O. Yazyev, A. J. Austin, R. Cammi, C. Pomelli, J. W. Ochterski, 
 R. L. Martin, K. Morokuma, V. G. Zakrzewski, G. A. Voth, 
 P. Salvador, J. J. Dannenberg, S. Dapprich, A. D. Daniels, 
 O. Farkas, J. B. Foresman, J. V. Ortiz, J. Cioslowski, 
 and D. J. Fox, Gaussian, Inc., Wallingford CT, 2010.
 
 ******************************************
 Gaussian 09:  EM64L-G09RevC.01 23-Sep-2011
                 2-Mar-2026 
 ******************************************
 %nprocshared=8
 Will use up to    8 processors via shared memory.
 %mem=14GB
 ------------------
 # b3lyp/6-31g(d,p)
 ------------------
 1/38=1/1;
 2/12=2,17=6,18=5,40=1/2;
 3/5=1,6=6,7=101,11=2,16=1,25=1,30=1,74=-5/1,2,3;
 4//1;
 5/5=2,38=5/2;
 6/7=2,8=2,9=2,10=2,28=1/1;
 99/5=1,9=1/99;
 -----------------
 Generated by mdgx
 -----------------
 Charge =  0 Multiplicity = 1
 Symbolic Z-Matrix:
 C                     16.76933   17.13849   15.30224 
 C                     17.16619   15.95404   14.43228 
 O                     17.49531   16.15643   13.2801 
 N                     17.15023   14.64299   14.95082 
 C                     16.64643   14.33131   16.31487 
 C                     17.46978   13.23244   17.03965 
 C                     15.10216   14.07526   16.32403 
 C                     14.49823   14.13282   17.75358 
 C                     12.96121   13.97565   17.74476 
 C                     12.52639   12.68514   17.01675 
 C                     13.11706   12.61103   15.59184 
 C                     14.65406   12.77696   15.59521 
 C                     17.67138   13.54653   14.08417 
 C                     19.2212   13.46451   14.0059 
 O                     19.92864   14.10974   14.76469 
 N                     19.79868   12.57635   13.07189 
 C                     18.98056   11.85648   12.07772 
 C                     21.26664   12.45957   12.98423 
 H                     16.77533   18.07164   14.72882 
 H                     17.46734   17.19628   16.14294 
 H                     15.80032   16.96076   15.77585 
 H                     16.81211   15.22163   16.92863 
 H                     17.33637   12.24167   16.59343 
 H                     17.18891   13.16666   18.09624 
 H                     18.53716   13.47997   17.00965 
 H                     14.64731   14.90723   15.7715 
 H                     14.76213   15.08574   18.22812 
 H                     14.92444   13.33511   18.37276 
 H                     12.51111   14.84402   17.24748 
 H                     12.58551   13.96421   18.77516 
 H                     11.43175   12.63767   16.96749 
 H                     12.8618   11.81374   17.59306 
 H                     12.6707   13.39951   14.97301 
 H                     12.85134   11.65207   15.13047 
 H                     15.00393   12.78718   14.55706 
 H                     15.10126   11.90139   16.07994 
 H                     17.27831   13.6869   13.06979 
 H                     17.29915   12.57556   14.42818 
 H                     18.48945   12.57921   11.41432 
 H                     18.21955   11.25527   12.59056 
 H                     19.60596   11.18857   11.47263 
 H                     21.67407   12.20179   13.96987 
 H                     21.69001   13.41725   12.6565 
 H                     21.55241   11.67844   12.26901 
 
                          Input orientation:                          
 ---------------------------------------------------------------------
 Center     Atomic      Atomic             Coordinates (Angstroms)
 Number     Number       Type             X           Y           Z
 ---------------------------------------------------------------------
      1          6           0       16.769332   17.138486   15.302236
      2          6           0       17.166194   15.954045   14.432283
      3          8           0       17.495306   16.156431   13.280103
      4          7           0       17.150226   14.642993   14.950821
      5          6           0       16.646428   14.331308   16.314868
      6          6           0       17.469784   13.232444   17.039648
      7          6           0       15.102164   14.075260   16.324033
      8          6           0       14.498225   14.132822   17.753580
      9          6           0       12.961208   13.975655   17.744760
     10          6           0       12.526391   12.685137   17.016751
     11          6           0       13.117065   12.611034   15.591836
     12          6           0       14.654056   12.776956   15.595208
     13          6           0       17.671378   13.546533   14.084173
     14          6           0       19.221203   13.464507   14.005900
     15          8           0       19.928636   14.109742   14.764690
     16          7           0       19.798684   12.576349   13.071885
     17          6           0       18.980562   11.856479   12.077723
     18          6           0       21.266641   12.459567   12.984229
     19          1           0       16.775327   18.071636   14.728816
     20          1           0       17.467344   17.196279   16.142937
     21          1           0       15.800324   16.960759   15.775853
     22          1           0       16.812107   15.221632   16.928634
     23          1           0       17.336374   12.241672   16.593427
     24          1           0       17.188905   13.166660   18.096241
     25          1           0       18.537160   13.479971   17.009655
     26          1           0       14.647310   14.907231   15.771496
     27          1           0       14.762131   15.085744   18.228122
     28          1           0       14.924439   13.335115   18.372756
     29          1           0       12.511110   14.844016   17.247479
     30          1           0       12.585506   13.964210   18.775160
     31          1           0       11.431745   12.637671   16.967494
     32          1           0       12.861799   11.813735   17.593058
     33          1           0       12.670705   13.399514   14.973013
     34          1           0       12.851342   11.652071   15.130468
     35          1           0       15.003926   12.787178   14.557061
     36          1           0       15.101263   11.901386   16.079941
     37          1           0       17.278310   13.686898   13.069790
     38          1           0       17.299146   12.575562   14.428185
     39          1           0       18.489447   12.579207   11.414321
     40          1           0       18.219554   11.255271   12.590564
     41          1           0       19.605958   11.188568   11.472630
     42          1           0       21.674066   12.201785   13.969872
     43          1           0       21.690008   13.417246   12.656498
     44          1           0       21.552412   11.678438   12.269006
 ---------------------------------------------------------------------
                    Distance matrix (angstroms):
                    1          2          3          4          5
     1  C    0.000000
     2  C    1.522241   0.000000
     3  O    2.362307   1.215235   0.000000
     4  N    2.548737   1.409962   2.280542   0.000000
     5  C    2.986767   2.539204   3.641630   1.487140   0.000000
     6  C    4.332020   3.781220   4.762828   2.540662   1.552651
     7  C    3.634126   3.371760   4.395897   2.530334   1.565374
     8  C    4.494556   4.633133   5.752346   3.892151   2.593080
     9  C    5.520075   5.706876   6.726588   5.079302   3.968870
    10  C    6.385486   6.236426   7.120571   5.429652   4.491907
    11  C    5.824152   5.377335   6.089577   4.561376   3.992308
    12  C    4.856251   4.213920   4.985305   3.182483   2.627445
    13  C    3.898653   2.484453   2.736621   1.491611   2.577285
    14  C    4.603291   3.256173   3.279018   2.563328   3.565409
    15  O    4.409474   3.338119   3.509135   2.835236   3.636624
    16  N    5.913082   4.493275   4.262146   3.849123   4.851138
    17  C    6.571653   5.062206   4.705453   4.401078   5.433817
    18  C    6.891389   5.578701   5.289359   5.057639   5.995243
    19  H    1.095269   2.173684   2.507020   3.456216   4.064754
    20  H    1.094230   2.135456   3.045962   2.835660   2.985217
    21  H    1.093104   2.164313   3.122287   2.806234   2.814327
    22  H    2.514226   2.625561   3.827844   2.088275   1.093999
    23  H    5.095832   4.298978   5.131151   2.915330   2.218153
    24  H    4.874209   4.603761   5.676953   3.474870   2.196355
    25  H    4.407406   3.826674   4.707277   2.741350   2.186863
    26  H    3.114752   3.038764   3.984799   2.647247   2.150212
    27  H    4.099197   4.576227   5.753217   4.079182   2.789317
    28  H    5.224688   5.235608   6.364299   4.286527   2.862263
    29  H    5.213541   5.552233   6.504207   5.180390   4.270068
    30  H    6.296160   6.618362   7.688148   5.993578   4.762235
    31  H    7.177761   7.092921   7.921192   6.386651   5.521525
    32  H    6.990683   6.757253   7.676586   5.777259   4.721796
    33  H    5.557612   5.198792   5.808900   4.648962   4.298277
    34  H    6.743953   6.132894   6.729005   5.240066   4.794142
    35  H    4.754558   3.836667   4.380577   2.864560   2.858678
    36  H    5.551081   4.837640   5.628139   3.604105   2.889161
    37  H    4.142021   2.647435   2.487953   2.113954   3.368244
    38  H    4.675997   3.381101   3.765527   2.137662   2.658620
    39  H    6.233916   4.716845   4.155236   4.308080   5.521045
    40  H    6.638414   5.155577   5.002136   4.265084   5.080076
    41  H    7.623245   6.117334   5.692229   5.482836   6.487134
    42  H    7.085382   5.883382   5.794569   5.233248   5.942308
    43  H    6.712721   5.482122   5.048519   5.232208   6.297371
    44  H    7.867049   6.496113   6.126568   5.946424   6.890239
                    6          7          8          9         10
     6  C    0.000000
     7  C    2.613057   0.000000
     8  C    3.185992   1.552952   0.000000
     9  C    4.623506   2.571396   1.545057   0.000000
    10  C    4.973652   3.007808   2.554768   1.544182   0.000000
    11  C    4.629091   2.573071   2.982713   2.553735   1.544270
    12  C    3.197219   1.554857   2.553669   2.987170   2.560503
    13  C    2.978947   3.449259   4.886428   5.980781   5.984389
    14  C    3.510690   4.765841   6.066158   7.309438   7.381948
    15  O    3.462808   5.072235   6.198658   7.579172   7.867307
    16  N    4.647298   5.905972   7.241253   8.399101   8.274059
    17  C    5.366230   6.164098   7.582113   8.534567   8.169272
    18  C    5.608911   7.194827   8.447363   9.692337   9.628297
    19  H    5.407402   4.616840   5.463392   6.357711   7.232045
    20  H    4.063998   3.920156   4.560111   5.765719   6.747367
    21  H    4.276050   3.018945   3.688373   4.565963   5.526247
    22  H    2.098030   2.145603   2.687023   4.128915   4.980856
    23  H    1.094779   2.902811   3.602428   4.845033   4.848897
    24  H    1.095267   2.884573   2.879348   4.318731   4.810011
    25  H    1.096111   3.552976   4.158441   5.646001   6.063098
    26  H    3.518449   1.097436   2.133213   2.757634   3.314613
    27  H    3.489782   2.182259   1.096766   2.170083   3.496979
    28  H    2.875153   2.185559   1.096072   2.158459   2.830522
    29  H    5.218123   2.856098   2.170383   1.097236   2.171227
    30  H    5.234850   3.514815   2.174982   1.096817   2.175207
    31  H    6.067691   3.994081   3.500958   2.175683   1.096781
    32  H    4.853094   3.426974   2.842854   2.169514   1.097256
    33  H    5.227816   2.862496   3.407216   2.845858   2.169798
    34  H    5.241427   3.516055   3.968257   3.499376   2.175059
    35  H    3.527316   2.188835   3.504886   3.968198   3.492659
    36  H    2.881432   2.187536   2.853775   3.413803   2.849885
    37  H    4.000370   3.934022   5.464943   6.369936   6.258016
    38  H    2.698213   3.266507   4.618276   5.637166   5.430643
    39  H    5.754192   6.149563   7.650475   8.519738   8.182694
    40  H    4.926025   5.622210   6.984649   7.849613   7.351718
    41  H    6.303361   7.221722   8.614401   9.553019   9.115771
    42  H    5.306766   7.227854   8.338947   9.659725   9.653863
    43  H    6.087400   7.568585   8.843870  10.119001  10.174462
    44  H    6.468524   7.987095   9.266396  10.443652  10.248101
                   11         12         13         14         15
    11  C    0.000000
    12  C    1.545925   0.000000
    13  C    4.887738   3.461172   0.000000
    14  C    6.364284   4.884410   1.553966   0.000000
    15  O    7.023376   5.503388   2.423947   1.221701   0.000000
    16  N    7.141106   5.733638   2.547825   1.412336   2.287743
    17  C    6.877423   5.651427   2.931908   2.522207   3.632607
    18  C    8.557929   7.116476   3.913731   2.497506   2.771890
    19  H    6.629168   5.769234   4.657792   5.265981   5.063719
    20  H    6.344534   5.267353   4.195328   4.644251   4.181416
    21  H    5.114083   4.341747   4.244945   5.201819   5.117980
    22  H    4.717583   3.523017   3.411050   4.175357   3.953696
    23  H    4.352262   2.911667   2.848025   3.426835   3.681547
    24  H    4.812551   3.582248   4.058790   4.577099   4.415287
    25  H    5.669453   4.192063   3.051631   3.080697   2.715269
    26  H    2.765222   2.137568   3.720692   5.110702   5.435260
    27  H    3.972459   3.503487   5.291994   6.351290   6.296088
    28  H    3.394762   2.845949   5.097286   6.127671   6.217731
    29  H    2.845091   3.405136   6.190180   7.578669   7.856405
    30  H    3.499599   3.974993   6.931516   8.187064   8.368190
    31  H    2.175648   3.505118   6.933440   8.374386   8.900365
    32  H    2.169270   2.851558   6.200557   7.485637   7.950566
    33  H    1.097214   2.169881   5.081180   6.621824   7.295574
    34  H    1.096849   2.175115   5.283604   6.717492   7.500802
    35  H    2.159174   1.095565   2.813458   4.306736   5.103436
    36  H    2.163074   1.096168   3.646244   4.870205   5.469027
    37  H    4.983388   3.753989   1.096894   2.168085   3.174226
    38  H    4.341100   2.898104   1.095302   2.159363   3.062868
    39  H    6.805522   5.677071   2.955176   2.834696   3.954589
    40  H    6.072983   4.904711   2.789489   2.808416   3.974392
    41  H    7.816457   6.636261   4.015315   3.427155   4.413053
    42  H    8.718975   7.228630   4.224088   2.759040   2.705283
    43  H    9.097338   7.651837   4.266656   2.813915   2.833100
    44  H    9.114056   7.736774   4.674081   3.411946   3.843998
                   16         17         18         19         20
    16  N    0.000000
    17  C    1.475092   0.000000
    18  C    1.475201   2.532119   0.000000
    19  H    6.487240   7.107710   7.396675   0.000000
    20  H    6.017496   6.879626   6.844599   1.801353   0.000000
    21  H    6.520842   7.060011   7.611473   1.811344   1.723130
    22  H    5.549025   6.289498   6.559742   3.600427   2.223935
    23  H    4.310016   4.821131   5.340486   6.146546   4.976768
    24  H    5.692413   6.414762   6.577277   5.964007   4.486730
    25  H    4.232494   5.211169   4.969441   5.421223   3.963161
    26  H    6.265586   6.459731   7.587850   3.953365   3.651068
    27  H    7.632215   8.127159   8.758075   5.021320   4.015039
    28  H    7.241079   7.633213   8.368174   6.256095   5.132938
    29  H    8.699806   8.803724  10.025977   5.911408   5.596196
    30  H    9.299647   9.497101  10.543289   7.127303   6.419284
    31  H    9.229583   9.027998  10.612412   7.943143   7.608498
    32  H    8.315224   8.237718   9.607277   7.917127   7.230883
    33  H    7.422936   7.111818   8.872930   6.223848   6.228314
    34  H    7.304630   6.850429   8.722136   7.534574   7.284971
    35  H    5.023933   4.777756   6.465503   5.576097   5.293732
    36  H    5.618696   5.573933   6.921480   6.534525   5.799845
    37  H    2.754199   2.689292   4.173781   4.715007   4.668588
    38  H    2.843807   2.978071   4.223681   5.529159   4.931500
    39  H    2.112257   1.097102   3.192450   6.640095   6.687440
    40  H    2.114373   1.097083   3.300007   7.288398   6.962812
    41  H    2.126193   1.096979   2.580357   8.123537   7.904304
    42  H    2.112755   3.309747   1.097241   7.683019   6.882128
    43  H    2.111104   3.179949   1.097176   7.078979   6.653363
    44  H    2.127538   2.585092   1.096983   8.351298   7.883000
                   21         22         23         24         25
    21  H    0.000000
    22  H    2.318873   0.000000
    23  H    5.029678   3.044237   0.000000
    24  H    4.659135   2.393364   1.770819   0.000000
    25  H    4.596566   2.452703   1.774406   1.759723   0.000000
    26  H    2.355087   2.474704   3.874512   3.859240   4.324470
    27  H    3.256862   2.430954   4.169856   3.096693   4.279487
    28  H    4.544929   3.034424   3.190464   2.287498   3.864037
    29  H    4.179140   4.329298   5.521154   5.041397   6.183078
    30  H    5.320733   4.780682   5.504347   4.721048   6.226851
    31  H    6.260477   5.968807   5.929703   5.890568   7.155289
    32  H    6.199113   5.259291   4.604803   4.561518   5.943603
    33  H    4.808485   4.929075   5.072948   5.497537   6.210449
    34  H    6.106978   5.626973   4.754302   5.468478   6.261077
    35  H    4.420235   3.849733   3.143991   4.176594   4.356481
    36  H    5.116484   3.830314   2.318445   3.166171   3.893802
    37  H    4.497264   4.178926   3.808945   5.054092   4.141262
    38  H    4.826244   3.673029   2.191151   3.717013   3.002436
    39  H    6.741835   6.340625   5.316638   6.832610   5.667575
    40  H    6.967879   6.044153   4.216148   5.918457   4.957674
    41  H    8.143634   7.337519   5.699351   7.323061   6.086995
    42  H    7.772403   6.443011   5.069537   6.170460   4.551288
    43  H    7.548195   6.730593   5.986277   7.064950   5.375348
    44  H    8.560806   7.532386   6.065709   7.430455   5.900086
                   26         27         28         29         30
    26  H    0.000000
    27  H    2.465778   0.000000
    28  H    3.052033   1.764076   0.000000
    29  H    2.597282   2.467222   3.060586   0.000000
    30  H    3.763286   2.508940   2.455258   1.764483   0.000000
    31  H    4.113535   4.321309   3.828851   2.472120   2.521612
    32  H    4.009471   3.836744   2.678993   3.070018   2.469462
    33  H    2.611083   4.220565   4.079426   2.699121   3.844797
    34  H    3.772597   5.003667   4.200333   3.845257   4.324400
    35  H    2.469140   4.338036   3.855656   4.205123   5.002651
    36  H    3.055539   3.856142   2.709954   4.090368   4.224746
    37  H    3.963658   5.907310   5.812565   6.443462   7.392601
    38  H    3.778016   5.213155   4.666455   6.001633   6.560712
    39  H    6.258329   8.161096   7.854966   8.654224   9.537122
    40  H    6.017979   7.642536   6.972609   8.194649   8.793752
    41  H    7.543003   9.180812   8.610228   9.851297  10.503232
    42  H    7.742131   8.615379   8.138016  10.083841  10.430669
    43  H    7.843651   9.045572   8.857499  10.361706  10.983130
    44  H    8.388860   9.655501   9.161352  10.795888  11.311949
                   31         32         33         34         35
    31  H    0.000000
    32  H    1.765009   0.000000
    33  H    2.468477   3.068525   0.000000
    34  H    2.522167   2.467913   1.763796   0.000000
    35  H    4.311962   3.841038   2.447834   2.500176   0.000000
    36  H    3.846456   2.704145   3.062236   2.454750   1.764445
    37  H    7.104596   6.593501   4.993483   5.290081   2.862567
    38  H    6.393617   5.503349   4.732674   4.596629   2.308555
    39  H    8.980662   8.392446   6.869858   6.815978   4.697757
    40  H    8.194076   7.351351   6.408086   5.951996   4.068675
    41  H    9.955460   9.128754   8.077048   7.695418   5.766105
    42  H   10.680865   9.535938   9.137908   8.915696   6.721477
    43  H   11.154568  10.241003   9.312056   9.346571   6.979457
    44  H   11.199277  10.192673   9.442376   9.159546   7.024754
                   36         37         38         39         40
    36  H    0.000000
    37  H    4.121722   0.000000
    38  H    2.830813   1.755203   0.000000
    39  H    5.805793   2.331182   3.240401   0.000000
    40  H    4.724082   2.651115   2.442779   1.791423   0.000000
    41  H    6.482878   3.769685   3.997554   1.784342   1.782230
    42  H    6.909731   4.726349   4.414712   4.100620   3.838234
    43  H    7.578216   4.439212   4.809051   3.533965   4.089320
    44  H    7.496016   4.789897   4.853571   3.305091   3.374969
                   41         42         43         44
    41  H    0.000000
    42  H    3.397042   0.000000
    43  H    3.272891   1.789566   0.000000
    44  H    2.159368   1.783714   1.786766   0.000000
 Stoichiometry    C14H26N2O2
 Framework group  C1[X(C14H26N2O2)]
 Deg. of freedom   126
 Full point group                 C1      NOp   1
 Largest Abelian subgroup         C1      NOp   1
 Largest concise Abelian subgroup C1      NOp   1
                         Standard orientation:                         
 ---------------------------------------------------------------------
 Center     Atomic      Atomic             Coordinates (Angstroms)
 Number     Number       Type             X           Y           Z
 ---------------------------------------------------------------------
      1          6           0       -0.295539    3.257031   -0.473771
      2          6           0        0.558845    2.039515   -0.797658
      3          8           0        1.421925    2.137601   -1.647520
      4          7           0        0.352612    0.816620   -0.126846
      5          6           0       -0.762762    0.613538    0.835591
      6          6           0       -0.369112   -0.255590    2.060491
      7          6           0       -2.074108    0.144204    0.121104
      8          6           0       -3.329790    0.297730    1.021855
      9          6           0       -4.631284   -0.075813    0.277692
     10          6           0       -4.555457   -1.497344   -0.320638
     11          6           0       -3.312569   -1.668399   -1.221050
     12          6           0       -2.008789   -1.286961   -0.483116
     13          6           0        1.306641   -0.296471   -0.402090
     14          6           0        2.677472   -0.167033    0.318243
     15          8           0        2.855600    0.663722    1.196120
     16          7           0        3.702558   -1.076274   -0.024062
     17          6           0        3.555102   -2.026087   -1.142993
     18          6           0        5.010149   -0.993769    0.653889
     19          1           0       -0.048174    4.100550   -1.127146
     20          1           0       -0.134336    3.520292    0.576013
     21          1           0       -1.358222    3.005590   -0.522331
     22          1           0       -0.987364    1.589441    1.276046
     23          1           0       -0.197441   -1.304096    1.796473
     24          1           0       -1.149474   -0.224962    2.828415
     25          1           0        0.545452    0.135034    2.521409
     26          1           0       -2.226020    0.825671   -0.725591
     27          1           0       -3.402251    1.331224    1.381768
     28          1           0       -3.238619   -0.345650    1.904535
     29          1           0       -4.809628    0.649112   -0.526425
     30          1           0       -5.482367   -0.008653    0.966281
     31          1           0       -5.463901   -1.705592   -0.898816
     32          1           0       -4.515731   -2.231430    0.493924
     33          1           0       -3.420635   -1.036890   -2.111779
     34          1           0       -3.248100   -2.706395   -1.569597
     35          1           0       -1.175749   -1.359977   -1.190912
     36          1           0       -1.826052   -2.020977    0.310238
     37          1           0        1.484479   -0.344146   -1.483421
     38          1           0        0.866167   -1.258420   -0.118676
     39          1           0        3.435417   -1.471170   -2.081809
     40          1           0        2.674178   -2.658677   -0.977481
     41          1           0        4.439412   -2.670290   -1.222751
     42          1           0        4.866038   -1.062986    1.739421
     43          1           0        5.486743   -0.035530    0.412165
     44          1           0        5.667001   -1.811385    0.332299
 ---------------------------------------------------------------------
 Rotational constants (GHZ):      0.6572535      0.2162002      0.1932781
 Standard basis: 6-31G(d,p) (6D, 7F)
 There are   400 symmetry adapted basis functions of A   symmetry.
 Integral buffers will be    131072 words long.
 Raffenetti 2 integral format.
 Two-electron integral symmetry is turned on.
   400 basis functions,   686 primitive gaussians,   400 cartesian basis functions
    70 alpha electrons       70 beta electrons
       nuclear repulsion energy      1435.6286253230 Hartrees.
 NAtoms=   44 NActive=   44 NUniq=   44 SFac= 1.00D+00 NAtFMM=   60 NAOKFM=F Big=F
 One-electron integrals computed using PRISM.
 NBasis=   400 RedAO= T  NBF=   400
 NBsUse=   400 1.00D-06 NBFU=   400
 Harris functional with IExCor=  402 diagonalized for initial guess.
 ExpMin= 1.61D-01 ExpMax= 5.48D+03 ExpMxC= 8.25D+02 IAcc=1 IRadAn=         1 AccDes= 0.00D+00
 HarFok:  IExCor=  402 AccDes= 0.00D+00 IRadAn=         1 IDoV= 1
 ScaDFX=  1.000000  1.000000  1.000000  1.000000
 FoFCou: FMM=F IPFlag=           0 FMFlag=      100000 FMFlg1=           0
         NFxFlg=           0 DoJE=T BraDBF=F KetDBF=T FulRan=T
         Omega=  0.000000  0.000000  1.000000  0.000000  0.000000 ICntrl=     500 IOpCl=  0
         NMat0=    1 NMatS0=    1 NMatT0=    0 NMatD0=    1 NMtDS0=    0 NMtDT0=    0
         I1Cent=           4 NGrid=           0.
 Petite list used in FoFCou.
 Initial guess orbital symmetries:
       Occupied  (A) (A) (A) (A) (A) (A) (A) (A) (A) (A) (A) (A)
                 (A) (A) (A) (A) (A) (A) (A) (A) (A) (A) (A) (A)
                 (A) (A) (A) (A) (A) (A) (A) (A) (A) (A) (A) (A)
                 (A) (A) (A) (A) (A) (A) (A) (A) (A) (A) (A) (A)
                 (A) (A) (A) (A) (A) (A) (A) (A) (A) (A) (A) (A)
                 (A) (A) (A) (A) (A) (A) (A) (A) (A) (A)
       Virtual   (A) (A) (A) (A) (A) (A) (A) (A) (A) (A) (A) (A)
                 (A) (A) (A) (A) (A) (A) (A) (A) (A) (A) (A) (A)
                 (A) (A) (A) (A) (A) (A) (A) (A) (A) (A) (A) (A)
                 (A) (A) (A) (A) (A) (A) (A) (A) (A) (A) (A) (A)
                 (A) (A) (A) (A) (A) (A) (A) (A) (A) (A) (A) (A)
                 (A) (A) (A) (A) (A) (A) (A) (A) (A) (A) (A) (A)
                 (A) (A) (A) (A) (A) (A) (A) (A) (A) (A) (A) (A)
                 (A) (A) (A) (A) (A) (A) (A) (A) (A) (A) (A) (A)
                 (A) (A) (A) (A) (A) (A) (A) (A) (A) (A) (A) (A)
                 (A) (A) (A) (A) (A) (A) (A) (A) (A) (A) (A) (A)
                 (A) (A) (A) (A) (A) (A) (A) (A) (A) (A) (A) (A)
                 (A) (A) (A) (A) (A) (A) (A) (A) (A) (A) (A) (A)
                 (A) (A) (A) (A) (A) (A) (A) (A) (A) (A) (A) (A)
                 (A) (A) (A) (A) (A) (A) (A) (A) (A) (A) (A) (A)
                 (A) (A) (A) (A) (A) (A) (A) (A) (A) (A) (A) (A)
                 (A) (A) (A) (A) (A) (A) (A) (A) (A) (A) (A) (A)
                 (A) (A) (A) (A) (A) (A) (A) (A) (A) (A) (A) (A)
                 (A) (A) (A) (A) (A) (A) (A) (A) (A) (A) (A) (A)
                 (A) (A) (A) (A) (A) (A) (A) (A) (A) (A) (A) (A)
                 (A) (A) (A) (A) (A) (A) (A) (A) (A) (A) (A) (A)
                 (A) (A) (A) (A) (A) (A) (A) (A) (A) (A) (A) (A)
                 (A) (A) (A) (A) (A) (A) (A) (A) (A) (A) (A) (A)
                 (A) (A) (A) (A) (A) (A) (A) (A) (A) (A) (A) (A)
                 (A) (A) (A) (A) (A) (A) (A) (A) (A) (A) (A) (A)
                 (A) (A) (A) (A) (A) (A) (A) (A) (A) (A) (A) (A)
                 (A) (A) (A) (A) (A) (A) (A) (A) (A) (A) (A) (A)
                 (A) (A) (A) (A) (A) (A) (A) (A) (A) (A) (A) (A)
                 (A) (A) (A) (A) (A) (A)
 The electronic state of the initial guess is 1-A.
 Requested convergence on RMS density matrix=1.00D-08 within 128 cycles.
 Requested convergence on MAX density matrix=1.00D-06.
 Requested convergence on             energy=1.00D-06.
 No special actions if energy rises.
 Integral accuracy reduced to 1.0D-05 until final iterations.
 Initial convergence to 1.0D-05 achieved.  Increase integral accuracy.
 SCF Done:  E(RB3LYP) =  -809.155872100     A.U. after   14 cycles
             Convg  =    0.8519D-08             -V/T =  2.0102

 **********************************************************************

            Population analysis using the SCF density.

 **********************************************************************

 Orbital symmetries:
       Occupied  (A) (A) (A) (A) (A) (A) (A) (A) (A) (A) (A) (A)
                 (A) (A) (A) (A) (A) (A) (A) (A) (A) (A) (A) (A)
                 (A) (A) (A) (A) (A) (A) (A) (A) (A) (A) (A) (A)
                 (A) (A) (A) (A) (A) (A) (A) (A) (A) (A) (A) (A)
                 (A) (A) (A) (A) (A) (A) (A) (A) (A) (A) (A) (A)
                 (A) (A) (A) (A) (A) (A) (A) (A) (A) (A)
       Virtual   (A) (A) (A) (A) (A) (A) (A) (A) (A) (A) (A) (A)
                 (A) (A) (A) (A) (A) (A) (A) (A) (A) (A) (A) (A)
                 (A) (A) (A) (A) (A) (A) (A) (A) (A) (A) (A) (A)
                 (A) (A) (A) (A) (A) (A) (A) (A) (A) (A) (A) (A)
                 (A) (A) (A) (A) (A) (A) (A) (A) (A) (A) (A) (A)
                 (A) (A) (A) (A) (A) (A) (A) (A) (A) (A) (A) (A)
                 (A) (A) (A) (A) (A) (A) (A) (A) (A) (A) (A) (A)
                 (A) (A) (A) (A) (A) (A) (A) (A) (A) (A) (A) (A)
                 (A) (A) (A) (A) (A) (A) (A) (A) (A) (A) (A) (A)
                 (A) (A) (A) (A) (A) (A) (A) (A) (A) (A) (A) (A)
                 (A) (A) (A) (A) (A) (A) (A) (A) (A) (A) (A) (A)
                 (A) (A) (A) (A) (A) (A) (A) (A) (A) (A) (A) (A)
                 (A) (A) (A) (A) (A) (A) (A) (A) (A) (A) (A) (A)
                 (A) (A) (A) (A) (A) (A) (A) (A) (A) (A) (A) (A)
                 (A) (A) (A) (A) (A) (A) (A) (A) (A) (A) (A) (A)
                 (A) (A) (A) (A) (A) (A) (A) (A) (A) (A) (A) (A)
                 (A) (A) (A) (A) (A) (A) (A) (A) (A) (A) (A) (A)
                 (A) (A) (A) (A) (A) (A) (A) (A) (A) (A) (A) (A)
                 (A) (A) (A) (A) (A) (A) (A) (A) (A) (A) (A) (A)
                 (A) (A) (A) (A) (A) (A) (A) (A) (A) (A) (A) (A)
                 (A) (A) (A) (A) (A) (A) (A) (A) (A) (A) (A) (A)
                 (A) (A) (A) (A) (A) (A) (A) (A) (A) (A) (A) (A)
                 (A) (A) (A) (A) (A) (A) (A) (A) (A) (A) (A) (A)
                 (A) (A) (A) (A) (A) (A) (A) (A) (A) (A) (A) (A)
                 (A) (A) (A) (A) (A) (A) (A) (A) (A) (A) (A) (A)
                 (A) (A) (A) (A) (A) (A) (A) (A) (A) (A) (A) (A)
                 (A) (A) (A) (A) (A) (A) (A) (A) (A) (A) (A) (A)
                 (A) (A) (A) (A) (A) (A)
 The electronic state is 1-A.
 Alpha  occ. eigenvalues --  -19.10506 -19.09815 -14.35844 -14.35405 -10.28008
 Alpha  occ. eigenvalues --  -10.27643 -10.22922 -10.22845 -10.22671 -10.21493
 Alpha  occ. eigenvalues --  -10.19079 -10.18437 -10.18348 -10.18301 -10.18280
 Alpha  occ. eigenvalues --  -10.18255 -10.18139 -10.17890  -1.02519  -1.01781
 Alpha  occ. eigenvalues --   -0.91403  -0.91154  -0.82850  -0.77153  -0.74766
 Alpha  occ. eigenvalues --   -0.73988  -0.72369  -0.71742  -0.70441  -0.66746
 Alpha  occ. eigenvalues --   -0.63353  -0.61093  -0.58566  -0.55585  -0.54595
 Alpha  occ. eigenvalues --   -0.51517  -0.49522  -0.49198  -0.46902  -0.46621
 Alpha  occ. eigenvalues --   -0.46548  -0.45739  -0.44697  -0.43873  -0.43762
 Alpha  occ. eigenvalues --   -0.42858  -0.41360  -0.41052  -0.40838  -0.40221
 Alpha  occ. eigenvalues --   -0.39960  -0.39575  -0.39073  -0.37923  -0.37661
 Alpha  occ. eigenvalues --   -0.37505  -0.37319  -0.36151  -0.35287  -0.34541
 Alpha  occ. eigenvalues --   -0.33991  -0.33532  -0.33137  -0.31503  -0.30410
 Alpha  occ. eigenvalues --   -0.29719  -0.24546  -0.23556  -0.22858  -0.22477
 Alpha virt. eigenvalues --    0.03104   0.03785   0.07023   0.07737   0.09123
 Alpha virt. eigenvalues --    0.09585   0.10456   0.11434   0.12250   0.12718
 Alpha virt. eigenvalues --    0.13161   0.13674   0.14138   0.14700   0.15242
 Alpha virt. eigenvalues --    0.15493   0.15677   0.15960   0.16423   0.16720
 Alpha virt. eigenvalues --    0.17460   0.17889   0.18182   0.18538   0.19484
 Alpha virt. eigenvalues --    0.19921   0.20104   0.20335   0.20827   0.21806
 Alpha virt. eigenvalues --    0.22386   0.23416   0.24534   0.24779   0.25436
 Alpha virt. eigenvalues --    0.26238   0.26669   0.27483   0.28084   0.29023
 Alpha virt. eigenvalues --    0.29529   0.31530   0.33840   0.36838   0.38027
 Alpha virt. eigenvalues --    0.39550   0.47884   0.48190   0.49202   0.49585
 Alpha virt. eigenvalues --    0.50511   0.51300   0.51734   0.53041   0.53639
 Alpha virt. eigenvalues --    0.54319   0.54865   0.55661   0.56831   0.57254
 Alpha virt. eigenvalues --    0.58621   0.59171   0.61100   0.61732   0.62727
 Alpha virt. eigenvalues --    0.63679   0.64034   0.64388   0.65415   0.66099
 Alpha virt. eigenvalues --    0.66917   0.68804   0.69679   0.70104   0.71162
 Alpha virt. eigenvalues --    0.72486   0.73261   0.74341   0.75344   0.76726
 Alpha virt. eigenvalues --    0.78534   0.78746   0.80058   0.80770   0.80803
 Alpha virt. eigenvalues --    0.82324   0.82847   0.83461   0.83722   0.84739
 Alpha virt. eigenvalues --    0.85045   0.85589   0.86291   0.86795   0.87337
 Alpha virt. eigenvalues --    0.87709   0.88578   0.88848   0.89310   0.90214
 Alpha virt. eigenvalues --    0.90545   0.90885   0.91329   0.92164   0.92755
 Alpha virt. eigenvalues --    0.93520   0.93885   0.94517   0.94609   0.95735
 Alpha virt. eigenvalues --    0.96862   0.97431   0.98483   0.98881   0.99972
 Alpha virt. eigenvalues --    1.01969   1.02120   1.02553   1.04769   1.05242
 Alpha virt. eigenvalues --    1.09038   1.11141   1.12773   1.14064   1.15227
 Alpha virt. eigenvalues --    1.16349   1.18068   1.20604   1.25115   1.25930
 Alpha virt. eigenvalues --    1.26997   1.28581   1.29524   1.31600   1.34046
 Alpha virt. eigenvalues --    1.35109   1.35876   1.36774   1.37066   1.38832
 Alpha virt. eigenvalues --    1.40678   1.44982   1.47461   1.51747   1.54206
 Alpha virt. eigenvalues --    1.55270   1.55538   1.57647   1.60597   1.60879
 Alpha virt. eigenvalues --    1.61395   1.61998   1.64701   1.65401   1.67694
 Alpha virt. eigenvalues --    1.69477   1.70178   1.71906   1.72863   1.74138
 Alpha virt. eigenvalues --    1.76040   1.76521   1.77037   1.78486   1.80310
 Alpha virt. eigenvalues --    1.81126   1.81750   1.82959   1.84241   1.84512
 Alpha virt. eigenvalues --    1.85613   1.86635   1.87758   1.88031   1.89362
 Alpha virt. eigenvalues --    1.89992   1.90596   1.91259   1.92302   1.92787
 Alpha virt. eigenvalues --    1.93711   1.93991   1.94107   1.95824   1.97454
 Alpha virt. eigenvalues --    1.98537   1.99803   2.01664   2.02013   2.02787
 Alpha virt. eigenvalues --    2.03212   2.03747   2.04324   2.05234   2.06136
 Alpha virt. eigenvalues --    2.07086   2.07991   2.09478   2.10481   2.10632
 Alpha virt. eigenvalues --    2.11332   2.11700   2.12626   2.13360   2.13650
 Alpha virt. eigenvalues --    2.14651   2.15729   2.15871   2.16410   2.17024
 Alpha virt. eigenvalues --    2.18831   2.19853   2.22694   2.24746   2.26610
 Alpha virt. eigenvalues --    2.27050   2.28914   2.30427   2.31019   2.32075
 Alpha virt. eigenvalues --    2.33566   2.34099   2.34494   2.35012   2.35322
 Alpha virt. eigenvalues --    2.35862   2.36463   2.38052   2.39397   2.42052
 Alpha virt. eigenvalues --    2.43658   2.44665   2.45715   2.48305   2.50068
 Alpha virt. eigenvalues --    2.50716   2.52098   2.53398   2.54499   2.55155
 Alpha virt. eigenvalues --    2.56828   2.57445   2.58439   2.59410   2.59847
 Alpha virt. eigenvalues --    2.60907   2.61887   2.63396   2.64021   2.65066
 Alpha virt. eigenvalues --    2.66154   2.67382   2.68584   2.69933   2.71334
 Alpha virt. eigenvalues --    2.72432   2.73655   2.75427   2.77616   2.78162
 Alpha virt. eigenvalues --    2.78762   2.79657   2.80190   2.80809   2.82004
 Alpha virt. eigenvalues --    2.83486   2.84126   2.85320   2.85992   2.86731
 Alpha virt. eigenvalues --    2.87466   2.88095   2.88609   2.90854   2.91044
 Alpha virt. eigenvalues --    2.92747   2.93748   2.94207   2.96576   2.97733
 Alpha virt. eigenvalues --    2.99518   3.02557   3.08605   3.10446   3.12851
 Alpha virt. eigenvalues --    3.14290   3.17655   3.19965   3.22241   3.23288
 Alpha virt. eigenvalues --    3.28064   3.29638   3.30527   3.31168   3.33376
 Alpha virt. eigenvalues --    3.34706   3.39853   3.40089   3.41517   3.42048
 Alpha virt. eigenvalues --    3.43314   3.44371   3.44610   3.45235   3.46810
 Alpha virt. eigenvalues --    3.47013   3.47708   3.49460   3.52584   3.52848
 Alpha virt. eigenvalues --    3.53739   3.58795   3.97218   4.07906   4.09373
 Alpha virt. eigenvalues --    4.16978   4.27171   4.31811   4.38971   4.40936
 Alpha virt. eigenvalues --    4.44487   4.48019   4.50869   4.52061   4.63683
 Alpha virt. eigenvalues --    4.67406   4.72921   4.74556   4.75801   4.80944
          Condensed to atoms (all electrons):
              1          2          3          4          5          6
     1  C    5.155520   0.349852  -0.084159  -0.114938   0.001469  -0.000243
     2  C    0.349852   4.348930   0.593330   0.239085  -0.019468   0.002067
     3  O   -0.084159   0.593330   8.069034  -0.100317   0.002131  -0.000076
     4  N   -0.114938   0.239085  -0.100317   7.126556   0.273315  -0.045100
     5  C    0.001469  -0.019468   0.002131   0.273315   4.826181   0.360204
     6  C   -0.000243   0.002067  -0.000076  -0.045100   0.360204   5.013583
     7  C   -0.002600  -0.000594   0.000044  -0.063704   0.355056  -0.053567
     8  C   -0.000042   0.000042   0.000000   0.003952  -0.032268  -0.003975
     9  C    0.000002  -0.000002   0.000000  -0.000090   0.003071   0.000093
    10  C    0.000000   0.000000   0.000000  -0.000004   0.000239  -0.000030
    11  C    0.000000  -0.000004   0.000000  -0.000068   0.003370   0.000145
    12  C    0.000113  -0.000233   0.000003  -0.002387  -0.031366  -0.009325
    13  C    0.006071  -0.030790   0.004894   0.276125  -0.033276  -0.005286
    14  C   -0.000161   0.002188   0.001584  -0.042134  -0.002509   0.000562
    15  O   -0.000098   0.006156  -0.001025   0.000999  -0.000197  -0.003038
    16  N   -0.000002   0.000175  -0.000167   0.002172  -0.000012  -0.000118
    17  C    0.000000  -0.000056  -0.000025   0.000129   0.000006   0.000005
    18  C    0.000000  -0.000011   0.000002  -0.000057   0.000000   0.000002
    19  H    0.371410  -0.019128   0.004020   0.003651   0.000265  -0.000006
    20  H    0.360779  -0.025301   0.000958   0.003567  -0.003407   0.000083
    21  H    0.352369  -0.022556   0.002226   0.002300  -0.000420   0.000197
    22  H    0.007343  -0.011631   0.000098  -0.039864   0.383207  -0.041954
    23  H    0.000005  -0.000204   0.000000  -0.004223  -0.031551   0.379023
    24  H    0.000005   0.000014   0.000001   0.003420  -0.025552   0.372433
    25  H   -0.000021   0.000295  -0.000008   0.000356  -0.024749   0.371481
    26  H   -0.001466   0.002865  -0.000152  -0.001911  -0.039528   0.005626
    27  H    0.000004  -0.000023   0.000000   0.000096  -0.004953  -0.000477
    28  H   -0.000004   0.000003   0.000000  -0.000011  -0.005757   0.001694
    29  H    0.000000  -0.000001   0.000000  -0.000002  -0.000029  -0.000001
    30  H    0.000000   0.000000   0.000000   0.000001  -0.000098   0.000004
    31  H    0.000000   0.000000   0.000000   0.000000   0.000005   0.000000
    32  H    0.000000   0.000000   0.000000   0.000000  -0.000028  -0.000007
    33  H   -0.000001  -0.000001   0.000000   0.000008  -0.000033   0.000001
    34  H    0.000000   0.000000   0.000000   0.000000  -0.000111   0.000000
    35  H   -0.000011   0.000142  -0.000030   0.004191  -0.005215   0.000062
    36  H   -0.000003   0.000006   0.000000   0.000057  -0.005835   0.002591
    37  H    0.000409  -0.003737   0.014232  -0.036551   0.003604   0.000039
    38  H   -0.000068   0.004669   0.000709  -0.033614  -0.000911  -0.001522
    39  H    0.000000   0.000031   0.000007   0.000041   0.000002   0.000000
    40  H    0.000000  -0.000007   0.000001   0.000041  -0.000007  -0.000003
    41  H    0.000000   0.000000   0.000000  -0.000003   0.000000   0.000000
    42  H    0.000000  -0.000001   0.000000  -0.000002   0.000000  -0.000002
    43  H    0.000000   0.000004  -0.000001   0.000002   0.000000   0.000000
    44  H    0.000000   0.000000   0.000000   0.000001   0.000000   0.000000
              7          8          9         10         11         12
     1  C   -0.002600  -0.000042   0.000002   0.000000   0.000000   0.000113
     2  C   -0.000594   0.000042  -0.000002   0.000000  -0.000004  -0.000233
     3  O    0.000044   0.000000   0.000000   0.000000   0.000000   0.000003
     4  N   -0.063704   0.003952  -0.000090  -0.000004  -0.000068  -0.002387
     5  C    0.355056  -0.032268   0.003071   0.000239   0.003370  -0.031366
     6  C   -0.053567  -0.003975   0.000093  -0.000030   0.000145  -0.009325
     7  C    4.987976   0.356013  -0.030159  -0.013694  -0.032768   0.371100
     8  C    0.356013   4.961257   0.367155  -0.042143  -0.013359  -0.042012
     9  C   -0.030159   0.367155   4.912926   0.380697  -0.045210  -0.012981
    10  C   -0.013694  -0.042143   0.380697   4.902897   0.379655  -0.042216
    11  C   -0.032768  -0.013359  -0.045210   0.379655   4.913546   0.370111
    12  C    0.371100  -0.042012  -0.012981  -0.042216   0.370111   4.948818
    13  C   -0.002248  -0.000015   0.000001  -0.000001   0.000008  -0.000768
    14  C    0.000010   0.000003   0.000000   0.000000  -0.000001   0.000063
    15  O    0.000023   0.000000   0.000000   0.000000   0.000000  -0.000002
    16  N    0.000002   0.000000   0.000000   0.000000   0.000000  -0.000001
    17  C    0.000000   0.000000   0.000000   0.000000   0.000000  -0.000001
    18  C    0.000000   0.000000   0.000000   0.000000   0.000000   0.000000
    19  H    0.000017  -0.000001   0.000000   0.000000   0.000000   0.000000
    20  H    0.000326  -0.000018   0.000000   0.000000   0.000000  -0.000005
    21  H   -0.000232   0.000066  -0.000019   0.000002   0.000000  -0.000058
    22  H   -0.053966  -0.003020  -0.000038   0.000001  -0.000148   0.005314
    23  H   -0.007064  -0.000084  -0.000010   0.000001  -0.000117   0.002175
    24  H   -0.001569   0.000591  -0.000039   0.000006  -0.000001  -0.000159
    25  H    0.004500   0.000065   0.000000   0.000000  -0.000001   0.000102
    26  H    0.372134  -0.046820  -0.004634  -0.001372  -0.004070  -0.049135
    27  H   -0.035874   0.373216  -0.032364   0.004601   0.000139   0.005167
    28  H   -0.038120   0.376948  -0.038731  -0.005032  -0.000449  -0.006694
    29  H   -0.006155  -0.039166   0.380737  -0.039687  -0.004480  -0.000907
    30  H    0.003914  -0.031241   0.375290  -0.032879   0.004741   0.000193
    31  H    0.000329   0.004606  -0.032650   0.376391  -0.032487   0.004617
    32  H   -0.001169  -0.004662  -0.040358   0.380634  -0.040340  -0.004438
    33  H   -0.006110  -0.000898  -0.004461  -0.039971   0.381284  -0.038692
    34  H    0.004123   0.000213   0.004764  -0.033004   0.375645  -0.032256
    35  H   -0.032446   0.005220   0.000107   0.004487  -0.031025   0.372840
    36  H   -0.039860  -0.006253  -0.000490  -0.004759  -0.039453   0.376721
    37  H    0.000365  -0.000003   0.000000   0.000000   0.000006  -0.000269
    38  H   -0.000447  -0.000040   0.000001   0.000002  -0.000019   0.000968
    39  H    0.000000   0.000000   0.000000   0.000000   0.000000   0.000000
    40  H    0.000000   0.000000   0.000000   0.000000   0.000000  -0.000005
    41  H    0.000000   0.000000   0.000000   0.000000   0.000000   0.000000
    42  H    0.000000   0.000000   0.000000   0.000000   0.000000   0.000000
    43  H    0.000000   0.000000   0.000000   0.000000   0.000000   0.000000
    44  H    0.000000   0.000000   0.000000   0.000000   0.000000   0.000000
             13         14         15         16         17         18
     1  C    0.006071  -0.000161  -0.000098  -0.000002   0.000000   0.000000
     2  C   -0.030790   0.002188   0.006156   0.000175  -0.000056  -0.000011
     3  O    0.004894   0.001584  -0.001025  -0.000167  -0.000025   0.000002
     4  N    0.276125  -0.042134   0.000999   0.002172   0.000129  -0.000057
     5  C   -0.033276  -0.002509  -0.000197  -0.000012   0.000006   0.000000
     6  C   -0.005286   0.000562  -0.003038  -0.000118   0.000005   0.000002
     7  C   -0.002248   0.000010   0.000023   0.000002   0.000000   0.000000
     8  C   -0.000015   0.000003   0.000000   0.000000   0.000000   0.000000
     9  C    0.000001   0.000000   0.000000   0.000000   0.000000   0.000000
    10  C   -0.000001   0.000000   0.000000   0.000000   0.000000   0.000000
    11  C    0.000008  -0.000001   0.000000   0.000000   0.000000   0.000000
    12  C   -0.000768   0.000063  -0.000002  -0.000001  -0.000001   0.000000
    13  C    5.075927   0.292150  -0.085986  -0.108190   0.002653   0.005640
    14  C    0.292150   4.446598   0.582598   0.254468  -0.027382  -0.018896
    15  O   -0.085986   0.582598   8.071343  -0.099593   0.002758   0.009350
    16  N   -0.108190   0.254468  -0.099593   7.085491   0.281827   0.278769
    17  C    0.002653  -0.027382   0.002758   0.281827   4.803221  -0.048450
    18  C    0.005640  -0.018896   0.009350   0.278769  -0.048450   4.772794
    19  H   -0.000095   0.000001   0.000000   0.000000   0.000000   0.000000
    20  H   -0.000216   0.000004   0.000096   0.000000   0.000000   0.000000
    21  H   -0.000256   0.000008   0.000000   0.000000   0.000000   0.000000
    22  H    0.004741   0.000099  -0.000037   0.000000   0.000000   0.000000
    23  H    0.000530   0.000004  -0.000031  -0.000001  -0.000001  -0.000001
    24  H   -0.000012   0.000043   0.000068   0.000000   0.000000   0.000000
    25  H   -0.001978   0.001216   0.010093   0.000094  -0.000007  -0.000013
    26  H   -0.000103   0.000003   0.000000   0.000000   0.000000   0.000000
    27  H    0.000003   0.000000   0.000000   0.000000   0.000000   0.000000
    28  H   -0.000002   0.000000   0.000000   0.000000   0.000000   0.000000
    29  H    0.000000   0.000000   0.000000   0.000000   0.000000   0.000000
    30  H    0.000000   0.000000   0.000000   0.000000   0.000000   0.000000
    31  H    0.000000   0.000000   0.000000   0.000000   0.000000   0.000000
    32  H    0.000000   0.000000   0.000000   0.000000   0.000000   0.000000
    33  H   -0.000005   0.000000   0.000000   0.000000   0.000000   0.000000
    34  H    0.000005   0.000000   0.000000   0.000000   0.000000   0.000000
    35  H   -0.000303   0.000258   0.000002   0.000002   0.000002   0.000000
    36  H   -0.000446  -0.000005   0.000000   0.000000   0.000000   0.000000
    37  H    0.362384  -0.035469   0.001628   0.001833   0.001712  -0.000220
    38  H    0.364937  -0.035826   0.000320   0.002303  -0.001138  -0.000167
    39  H    0.000323  -0.004654   0.000057  -0.046580   0.388094   0.002986
    40  H    0.001521  -0.005710   0.000031  -0.043660   0.385056   0.003475
    41  H   -0.000107   0.002178  -0.000077  -0.025971   0.385087  -0.007714
    42  H    0.000058  -0.003552   0.005558  -0.041618   0.003743   0.389342
    43  H   -0.000035  -0.004388   0.003247  -0.045632   0.002984   0.393145
    44  H   -0.000038   0.004345   0.000572  -0.030828  -0.007454   0.378129
             19         20         21         22         23         24
     1  C    0.371410   0.360779   0.352369   0.007343   0.000005   0.000005
     2  C   -0.019128  -0.025301  -0.022556  -0.011631  -0.000204   0.000014
     3  O    0.004020   0.000958   0.002226   0.000098   0.000000   0.000001
     4  N    0.003651   0.003567   0.002300  -0.039864  -0.004223   0.003420
     5  C    0.000265  -0.003407  -0.000420   0.383207  -0.031551  -0.025552
     6  C   -0.000006   0.000083   0.000197  -0.041954   0.379023   0.372433
     7  C    0.000017   0.000326  -0.000232  -0.053966  -0.007064  -0.001569
     8  C   -0.000001  -0.000018   0.000066  -0.003020  -0.000084   0.000591
     9  C    0.000000   0.000000  -0.000019  -0.000038  -0.000010  -0.000039
    10  C    0.000000   0.000000   0.000002   0.000001   0.000001   0.000006
    11  C    0.000000   0.000000   0.000000  -0.000148  -0.000117  -0.000001
    12  C    0.000000  -0.000005  -0.000058   0.005314   0.002175  -0.000159
    13  C   -0.000095  -0.000216  -0.000256   0.004741   0.000530  -0.000012
    14  C    0.000001   0.000004   0.000008   0.000099   0.000004   0.000043
    15  O    0.000000   0.000096   0.000000  -0.000037  -0.000031   0.000068
    16  N    0.000000   0.000000   0.000000   0.000000  -0.000001   0.000000
    17  C    0.000000   0.000000   0.000000   0.000000  -0.000001   0.000000
    18  C    0.000000   0.000000   0.000000   0.000000  -0.000001   0.000000
    19  H    0.540154  -0.020512  -0.022110   0.000078   0.000000   0.000000
    20  H   -0.020512   0.575891  -0.033151   0.002572  -0.000003  -0.000007
    21  H   -0.022110  -0.033151   0.598826  -0.002158  -0.000003  -0.000002
    22  H    0.000078   0.002572  -0.002158   0.652650   0.005741  -0.005286
    23  H    0.000000  -0.000003  -0.000003   0.005741   0.612242  -0.031426
    24  H    0.000000  -0.000007  -0.000002  -0.005286  -0.031426   0.600385
    25  H    0.000000   0.000042   0.000001  -0.004446  -0.029838  -0.024679
    26  H   -0.000033   0.000021   0.004144  -0.004370  -0.000008  -0.000006
    27  H    0.000000  -0.000012   0.000384   0.006933   0.000053   0.000428
    28  H    0.000000   0.000002   0.000001  -0.000509   0.000194   0.002918
    29  H    0.000000   0.000000   0.000009  -0.000012   0.000000   0.000001
    30  H    0.000000   0.000000  -0.000001  -0.000003   0.000000   0.000001
    31  H    0.000000   0.000000   0.000000   0.000000   0.000000   0.000000
    32  H    0.000000   0.000000   0.000000   0.000000  -0.000001  -0.000004
    33  H    0.000000   0.000000  -0.000002  -0.000001   0.000000   0.000000
    34  H    0.000000   0.000000   0.000000   0.000003   0.000010   0.000000
    35  H    0.000000   0.000000   0.000005  -0.000008  -0.000057   0.000015
    36  H    0.000000   0.000000   0.000002  -0.000018   0.002578   0.000050
    37  H   -0.000006  -0.000006  -0.000032  -0.000211  -0.000023   0.000001
    38  H    0.000002  -0.000005  -0.000004   0.000029   0.001861  -0.000006
    39  H    0.000000   0.000000   0.000000   0.000000   0.000000   0.000000
    40  H    0.000000   0.000000   0.000000   0.000000  -0.000009   0.000000
    41  H    0.000000   0.000000   0.000000   0.000000   0.000000   0.000000
    42  H    0.000000   0.000000   0.000000   0.000000   0.000000   0.000000
    43  H    0.000000   0.000000   0.000000   0.000000   0.000000   0.000000
    44  H    0.000000   0.000000   0.000000   0.000000   0.000000   0.000000
             25         26         27         28         29         30
     1  C   -0.000021  -0.001466   0.000004  -0.000004   0.000000   0.000000
     2  C    0.000295   0.002865  -0.000023   0.000003  -0.000001   0.000000
     3  O   -0.000008  -0.000152   0.000000   0.000000   0.000000   0.000000
     4  N    0.000356  -0.001911   0.000096  -0.000011  -0.000002   0.000001
     5  C   -0.024749  -0.039528  -0.004953  -0.005757  -0.000029  -0.000098
     6  C    0.371481   0.005626  -0.000477   0.001694  -0.000001   0.000004
     7  C    0.004500   0.372134  -0.035874  -0.038120  -0.006155   0.003914
     8  C    0.000065  -0.046820   0.373216   0.376948  -0.039166  -0.031241
     9  C    0.000000  -0.004634  -0.032364  -0.038731   0.380737   0.375290
    10  C    0.000000  -0.001372   0.004601  -0.005032  -0.039687  -0.032879
    11  C   -0.000001  -0.004070   0.000139  -0.000449  -0.004480   0.004741
    12  C    0.000102  -0.049135   0.005167  -0.006694  -0.000907   0.000193
    13  C   -0.001978  -0.000103   0.000003  -0.000002   0.000000   0.000000
    14  C    0.001216   0.000003   0.000000   0.000000   0.000000   0.000000
    15  O    0.010093   0.000000   0.000000   0.000000   0.000000   0.000000
    16  N    0.000094   0.000000   0.000000   0.000000   0.000000   0.000000
    17  C   -0.000007   0.000000   0.000000   0.000000   0.000000   0.000000
    18  C   -0.000013   0.000000   0.000000   0.000000   0.000000   0.000000
    19  H    0.000000  -0.000033   0.000000   0.000000   0.000000   0.000000
    20  H    0.000042   0.000021  -0.000012   0.000002   0.000000   0.000000
    21  H    0.000001   0.004144   0.000384   0.000001   0.000009  -0.000001
    22  H   -0.004446  -0.004370   0.006933  -0.000509  -0.000012  -0.000003
    23  H   -0.029838  -0.000008   0.000053   0.000194   0.000000   0.000000
    24  H   -0.024679  -0.000006   0.000428   0.002918   0.000001   0.000001
    25  H    0.552676  -0.000145  -0.000028  -0.000086   0.000000   0.000000
    26  H   -0.000145   0.673778  -0.005612   0.006711   0.005659  -0.000019
    27  H   -0.000028  -0.005612   0.647857  -0.038110  -0.004885  -0.002478
    28  H   -0.000086   0.006711  -0.038110   0.641619   0.006059  -0.005076
    29  H    0.000000   0.005659  -0.004885   0.006059   0.643076  -0.037178
    30  H    0.000000  -0.000019  -0.002478  -0.005076  -0.037178   0.642338
    31  H    0.000000  -0.000033  -0.000175  -0.000046  -0.004998  -0.002403
    32  H    0.000000   0.000208  -0.000043   0.004845   0.006071  -0.005082
    33  H    0.000000   0.005551  -0.000024   0.000156   0.004550  -0.000055
    34  H    0.000000  -0.000050   0.000012  -0.000026  -0.000060  -0.000172
    35  H   -0.000014  -0.005216  -0.000165  -0.000054  -0.000027   0.000013
    36  H   -0.000083   0.006613  -0.000055   0.004541   0.000153  -0.000019
    37  H    0.000087  -0.000015   0.000000   0.000000   0.000000   0.000000
    38  H   -0.000112   0.000052  -0.000002   0.000002   0.000000   0.000000
    39  H   -0.000001   0.000000   0.000000   0.000000   0.000000   0.000000
    40  H    0.000006   0.000000   0.000000   0.000000   0.000000   0.000000
    41  H    0.000000   0.000000   0.000000   0.000000   0.000000   0.000000
    42  H    0.000022   0.000000   0.000000   0.000000   0.000000   0.000000
    43  H   -0.000002   0.000000   0.000000   0.000000   0.000000   0.000000
    44  H    0.000000   0.000000   0.000000   0.000000   0.000000   0.000000
             31         32         33         34         35         36
     1  C    0.000000   0.000000  -0.000001   0.000000  -0.000011  -0.000003
     2  C    0.000000   0.000000  -0.000001   0.000000   0.000142   0.000006
     3  O    0.000000   0.000000   0.000000   0.000000  -0.000030   0.000000
     4  N    0.000000   0.000000   0.000008   0.000000   0.004191   0.000057
     5  C    0.000005  -0.000028  -0.000033  -0.000111  -0.005215  -0.005835
     6  C    0.000000  -0.000007   0.000001   0.000000   0.000062   0.002591
     7  C    0.000329  -0.001169  -0.006110   0.004123  -0.032446  -0.039860
     8  C    0.004606  -0.004662  -0.000898   0.000213   0.005220  -0.006253
     9  C   -0.032650  -0.040358  -0.004461   0.004764   0.000107  -0.000490
    10  C    0.376391   0.380634  -0.039971  -0.033004   0.004487  -0.004759
    11  C   -0.032487  -0.040340   0.381284   0.375645  -0.031025  -0.039453
    12  C    0.004617  -0.004438  -0.038692  -0.032256   0.372840   0.376721
    13  C    0.000000   0.000000  -0.000005   0.000005  -0.000303  -0.000446
    14  C    0.000000   0.000000   0.000000   0.000000   0.000258  -0.000005
    15  O    0.000000   0.000000   0.000000   0.000000   0.000002   0.000000
    16  N    0.000000   0.000000   0.000000   0.000000   0.000002   0.000000
    17  C    0.000000   0.000000   0.000000   0.000000   0.000002   0.000000
    18  C    0.000000   0.000000   0.000000   0.000000   0.000000   0.000000
    19  H    0.000000   0.000000   0.000000   0.000000   0.000000   0.000000
    20  H    0.000000   0.000000   0.000000   0.000000   0.000000   0.000000
    21  H    0.000000   0.000000  -0.000002   0.000000   0.000005   0.000002
    22  H    0.000000   0.000000  -0.000001   0.000003  -0.000008  -0.000018
    23  H    0.000000  -0.000001   0.000000   0.000010  -0.000057   0.002578
    24  H    0.000000  -0.000004   0.000000   0.000000   0.000015   0.000050
    25  H    0.000000   0.000000   0.000000   0.000000  -0.000014  -0.000083
    26  H   -0.000033   0.000208   0.005551  -0.000050  -0.005216   0.006613
    27  H   -0.000175  -0.000043  -0.000024   0.000012  -0.000165  -0.000055
    28  H   -0.000046   0.004845   0.000156  -0.000026  -0.000054   0.004541
    29  H   -0.004998   0.006071   0.004550  -0.000060  -0.000027   0.000153
    30  H   -0.002403  -0.005082  -0.000055  -0.000172   0.000013  -0.000019
    31  H    0.641281  -0.036937  -0.005055  -0.002327  -0.000172  -0.000054
    32  H   -0.036937   0.646172   0.006069  -0.005142  -0.000048   0.004652
    33  H   -0.005055   0.006069   0.640308  -0.037000  -0.005377   0.006080
    34  H   -0.002327  -0.005142  -0.037000   0.643978  -0.002259  -0.005131
    35  H   -0.000172  -0.000048  -0.005377  -0.002259   0.637938  -0.039401
    36  H   -0.000054   0.004652   0.006080  -0.005131  -0.039401   0.649666
    37  H    0.000000   0.000000   0.000000   0.000000   0.000712   0.000003
    38  H    0.000000   0.000000   0.000005  -0.000005   0.000803   0.000824
    39  H    0.000000   0.000000   0.000000   0.000000  -0.000002   0.000000
    40  H    0.000000   0.000000   0.000000   0.000000   0.000030  -0.000001
    41  H    0.000000   0.000000   0.000000   0.000000   0.000000   0.000000
    42  H    0.000000   0.000000   0.000000   0.000000   0.000000   0.000000
    43  H    0.000000   0.000000   0.000000   0.000000   0.000000   0.000000
    44  H    0.000000   0.000000   0.000000   0.000000   0.000000   0.000000
             37         38         39         40         41         42
     1  C    0.000409  -0.000068   0.000000   0.000000   0.000000   0.000000
     2  C   -0.003737   0.004669   0.000031  -0.000007   0.000000  -0.000001
     3  O    0.014232   0.000709   0.000007   0.000001   0.000000   0.000000
     4  N   -0.036551  -0.033614   0.000041   0.000041  -0.000003  -0.000002
     5  C    0.003604  -0.000911   0.000002  -0.000007   0.000000   0.000000
     6  C    0.000039  -0.001522   0.000000  -0.000003   0.000000  -0.000002
     7  C    0.000365  -0.000447   0.000000   0.000000   0.000000   0.000000
     8  C   -0.000003  -0.000040   0.000000   0.000000   0.000000   0.000000
     9  C    0.000000   0.000001   0.000000   0.000000   0.000000   0.000000
    10  C    0.000000   0.000002   0.000000   0.000000   0.000000   0.000000
    11  C    0.000006  -0.000019   0.000000   0.000000   0.000000   0.000000
    12  C   -0.000269   0.000968   0.000000  -0.000005   0.000000   0.000000
    13  C    0.362384   0.364937   0.000323   0.001521  -0.000107   0.000058
    14  C   -0.035469  -0.035826  -0.004654  -0.005710   0.002178  -0.003552
    15  O    0.001628   0.000320   0.000057   0.000031  -0.000077   0.005558
    16  N    0.001833   0.002303  -0.046580  -0.043660  -0.025971  -0.041618
    17  C    0.001712  -0.001138   0.388094   0.385056   0.385087   0.003743
    18  C   -0.000220  -0.000167   0.002986   0.003475  -0.007714   0.389342
    19  H   -0.000006   0.000002   0.000000   0.000000   0.000000   0.000000
    20  H   -0.000006  -0.000005   0.000000   0.000000   0.000000   0.000000
    21  H   -0.000032  -0.000004   0.000000   0.000000   0.000000   0.000000
    22  H   -0.000211   0.000029   0.000000   0.000000   0.000000   0.000000
    23  H   -0.000023   0.001861   0.000000  -0.000009   0.000000   0.000000
    24  H    0.000001  -0.000006   0.000000   0.000000   0.000000   0.000000
    25  H    0.000087  -0.000112  -0.000001   0.000006   0.000000   0.000022
    26  H   -0.000015   0.000052   0.000000   0.000000   0.000000   0.000000
    27  H    0.000000  -0.000002   0.000000   0.000000   0.000000   0.000000
    28  H    0.000000   0.000002   0.000000   0.000000   0.000000   0.000000
    29  H    0.000000   0.000000   0.000000   0.000000   0.000000   0.000000
    30  H    0.000000   0.000000   0.000000   0.000000   0.000000   0.000000
    31  H    0.000000   0.000000   0.000000   0.000000   0.000000   0.000000
    32  H    0.000000   0.000000   0.000000   0.000000   0.000000   0.000000
    33  H    0.000000   0.000005   0.000000   0.000000   0.000000   0.000000
    34  H    0.000000  -0.000005   0.000000   0.000000   0.000000   0.000000
    35  H    0.000712   0.000803  -0.000002   0.000030   0.000000   0.000000
    36  H    0.000003   0.000824   0.000000  -0.000001   0.000000   0.000000
    37  H    0.573662  -0.028120   0.002811  -0.001323   0.000140  -0.000009
    38  H   -0.028120   0.596791  -0.000361   0.002862   0.000004   0.000007
    39  H    0.002811  -0.000361   0.596002  -0.043380  -0.029973  -0.000303
    40  H   -0.001323   0.002862  -0.043380   0.611018  -0.027334   0.000019
    41  H    0.000140   0.000004  -0.029973  -0.027334   0.581028   0.000315
    42  H   -0.000009   0.000007  -0.000303   0.000019   0.000315   0.579409
    43  H    0.000008  -0.000008   0.000568  -0.000308   0.000019  -0.036988
    44  H   -0.000004   0.000002   0.000043   0.000391   0.004307  -0.029975
             43         44
     1  C    0.000000   0.000000
     2  C    0.000004   0.000000
     3  O   -0.000001   0.000000
     4  N    0.000002   0.000001
     5  C    0.000000   0.000000
     6  C    0.000000   0.000000
     7  C    0.000000   0.000000
     8  C    0.000000   0.000000
     9  C    0.000000   0.000000
    10  C    0.000000   0.000000
    11  C    0.000000   0.000000
    12  C    0.000000   0.000000
    13  C   -0.000035  -0.000038
    14  C   -0.004388   0.004345
    15  O    0.003247   0.000572
    16  N   -0.045632  -0.030828
    17  C    0.002984  -0.007454
    18  C    0.393145   0.378129
    19  H    0.000000   0.000000
    20  H    0.000000   0.000000
    21  H    0.000000   0.000000
    22  H    0.000000   0.000000
    23  H    0.000000   0.000000
    24  H    0.000000   0.000000
    25  H   -0.000002   0.000000
    26  H    0.000000   0.000000
    27  H    0.000000   0.000000
    28  H    0.000000   0.000000
    29  H    0.000000   0.000000
    30  H    0.000000   0.000000
    31  H    0.000000   0.000000
    32  H    0.000000   0.000000
    33  H    0.000000   0.000000
    34  H    0.000000   0.000000
    35  H    0.000000   0.000000
    36  H    0.000000   0.000000
    37  H    0.000008  -0.000004
    38  H   -0.000008   0.000002
    39  H    0.000568   0.000043
    40  H   -0.000308   0.000391
    41  H    0.000019   0.004307
    42  H   -0.036988  -0.029975
    43  H    0.585759  -0.033912
    44  H   -0.033912   0.612248
 Mulliken atomic charges:
              1
     1  C   -0.401532
     2  C    0.583892
     3  O   -0.507314
     4  N   -0.455085
     5  C    0.055154
     6  C   -0.345167
     7  C   -0.033584
     8  C   -0.183327
     9  C   -0.182607
    10  C   -0.174821
    11  C   -0.184652
    12  C   -0.184397
    13  C   -0.127811
    14  C    0.592303
    15  O   -0.504817
    16  N   -0.464764
    17  C   -0.172765
    18  C   -0.158106
    19  H    0.142292
    20  H    0.138300
    21  H    0.120464
    22  H    0.098871
    23  H    0.100238
    24  H    0.108369
    25  H    0.145175
    26  H    0.081331
    27  H    0.086385
    28  H    0.093017
    29  H    0.091274
    30  H    0.090207
    31  H    0.090108
    32  H    0.089609
    33  H    0.093675
    34  H    0.088791
    35  H    0.095000
    36  H    0.087331
    37  H    0.142363
    38  H    0.125223
    39  H    0.134290
    40  H    0.117295
    41  H    0.118102
    42  H    0.133979
    43  H    0.135539
    44  H    0.102173
 Sum of Mulliken atomic charges =   0.00000
 Mulliken charges with hydrogens summed into heavy atoms:
              1
     1  C   -0.000476
     2  C    0.583892
     3  O   -0.507314
     4  N   -0.455085
     5  C    0.154025
     6  C    0.008615
     7  C    0.047747
     8  C   -0.003925
     9  C   -0.001126
    10  C    0.004895
    11  C   -0.002186
    12  C   -0.002067
    13  C    0.139775
    14  C    0.592303
    15  O   -0.504817
    16  N   -0.464764
    17  C    0.196923
    18  C    0.213585
 Sum of Mulliken charges with hydrogens summed into heavy atoms =   0.00000
 Electronic spatial extent (au):  <R**2>=           6115.3263
 Charge=              0.0000 electrons
 Dipole moment (field-independent basis, Debye):
    X=             -1.7247    Y=             -3.6271    Z=              0.2739  Tot=              4.0256
 Quadrupole moment (field-independent basis, Debye-Ang):
   XX=           -104.0772   YY=           -108.5139   ZZ=           -115.9171
   XY=            -15.2568   XZ=             -2.8367   YZ=              4.4080
 Traceless Quadrupole moment (field-independent basis, Debye-Ang):
   XX=              5.4255   YY=              0.9888   ZZ=             -6.4143
   XY=            -15.2568   XZ=             -2.8367   YZ=              4.4080
 Octapole moment (field-independent basis, Debye-Ang**2):
  XXX=             81.6461  YYY=             11.5358  ZZZ=              5.0340  XYY=              6.9722
  XXY=            -44.0747  XXZ=            -11.0546  XZZ=             -2.9344  YZZ=             -9.9970
  YYZ=              4.0672  XYZ=              8.9473
 Hexadecapole moment (field-independent basis, Debye-Ang**3):
 XXXX=          -5435.8590 YYYY=          -1495.2929 ZZZZ=           -808.8137 XXXY=           -174.3241
 XXXZ=            -21.6644 YYYX=            -44.6376 YYYZ=              8.4312 ZZZX=              4.2029
 ZZZY=              8.4725 XXYY=          -1203.4936 XXZZ=          -1112.9742 YYZZ=           -410.0163
 XXYZ=             10.4094 YYXZ=              5.5163 ZZXY=            -31.3012
 N-N= 1.435628625323D+03 E-N=-4.750885265079D+03  KE= 8.009736197692D+02
 1\1\GINC-C12\SP\RB3LYP\6-31G(d,p)\C14H26N2O2\TUU61186\02-Mar-2026\0\\#
  b3lyp/6-31g(d,p)\\Generated by mdgx\\0,1\C,0,16.7693316,17.1384864,15
 .3022357\C,0,17.166194,15.9540448,14.4322833\O,0,17.4953061,16.1564307
 ,13.2801027\N,0,17.1502261,14.6429933,14.950821\C,0,16.6464278,14.3313
 084,16.314868\C,0,17.4697844,13.2324442,17.0396479\C,0,15.1021643,14.0
 752602,16.324033\C,0,14.4982252,14.1328215,17.75358\C,0,12.9612079,13.
 9756548,17.7447597\C,0,12.5263906,12.6851374,17.0167509\C,0,13.1170646
 ,12.6110336,15.5918361\C,0,14.6540556,12.776956,15.5952075\C,0,17.6713
 784,13.546533,14.084173\C,0,19.2212028,13.4645066,14.0059001\O,0,19.92
 86364,14.1097416,14.7646899\N,0,19.7986844,12.576349,13.0718852\C,0,18
 .9805618,11.8564785,12.077723\C,0,21.2666413,12.4595667,12.9842292\H,0
 ,16.7753274,18.071636,14.728816\H,0,17.4673439,17.1962787,16.1429365\H
 ,0,15.8003236,16.9607586,15.7758525\H,0,16.8121067,15.2216319,16.92863
 38\H,0,17.3363739,12.241672,16.5934268\H,0,17.1889053,13.1666604,18.09
 6241\H,0,18.5371599,13.4799714,17.0096549\H,0,14.64731,14.9072312,15.7
 714955\H,0,14.7621308,15.0857435,18.2281218\H,0,14.9244386,13.3351148,
 18.3727561\H,0,12.5111104,14.8440159,17.2474791\H,0,12.5855064,13.9642
 101,18.77516\H,0,11.4317452,12.6376713,16.9674936\H,0,12.8617994,11.81
 37354,17.593058\H,0,12.6707048,13.3995137,14.9730133\H,0,12.8513418,11
 .6520712,15.1304679\H,0,15.0039257,12.7871784,14.5570607\H,0,15.101262
 5,11.9013856,16.0799405\H,0,17.2783099,13.6868978,13.0697904\H,0,17.29
 91462,12.5755616,14.4281846\H,0,18.4894466,12.5792067,11.4143214\H,0,1
 8.2195536,11.2552705,12.5905639\H,0,19.605958,11.1885676,11.4726298\H,
 0,21.6740661,12.2017854,13.9698715\H,0,21.6900083,13.4172455,12.656498
 \H,0,21.5524116,11.678438,12.269006\\Version=EM64L-G09RevC.01\State=1-
 A\HF=-809.1558721\RMSD=8.519e-09\Dipole=-0.7293872,-1.3819486,0.258195
 4\Quadrupole=-2.3035691,0.6075048,1.6960644,-7.1886528,-4.574195,9.314
 2158\PG=C01 [X(C14H26N2O2)]\\@


 MAN IS THE MEASURE OF ALL THINGS.
  -- PROTAGORAS (5TH CENTURY B.C.)
 Job cpu time:  0 days  0 hours  4 minutes 30.1 seconds.
 File lengths (MBytes):  RWF=     92 Int=      0 D2E=      0 Chk=      7 Scr=      1
 Normal termination of Gaussian 09 at Mon Mar  2 12:56:49 2026.
