      -----------------------------------------------------------      
     |                   =====================                   |     
     |                           x T B                           |     
     |                   =====================                   |     
     |                         S. Grimme                         |     
     |          Mulliken Center for Theoretical Chemistry        |     
     |                    University of Bonn                     |     
      -----------------------------------------------------------      

   * xtb version 6.7.1 (edcfbbe) compiled by 'conda@c0858423619e' on 2025-09-04

   xtb is free software: you can redistribute it and/or modify it under
   the terms of the GNU Lesser General Public License as published by
   the Free Software Foundation, either version 3 of the License, or
   (at your option) any later version.
   
   xtb is distributed in the hope that it will be useful,
   but WITHOUT ANY WARRANTY; without even the implied warranty of
   MERCHANTABILITY or FITNESS FOR A PARTICULAR PURPOSE.  See the
   GNU Lesser General Public License for more details.
   
   Cite this work as:
   * C. Bannwarth, E. Caldeweyher, S. Ehlert, A. Hansen, P. Pracht,
     J. Seibert, S. Spicher, S. Grimme, WIREs Comput. Mol. Sci., 2020, 11,
     e01493. DOI: 10.1002/wcms.1493
   
   for GFN2-xTB:
   * C. Bannwarth, S. Ehlert and S. Grimme., J. Chem. Theory Comput., 2019,
     15, 1652-1671. DOI: 10.1021/acs.jctc.8b01176
   for GFN1-xTB:
   * S. Grimme, C. Bannwarth, P. Shushkov, J. Chem. Theory Comput., 2017,
     13, 1989-2009. DOI: 10.1021/acs.jctc.7b00118
   for GFN0-xTB:
   * P. Pracht, E. Caldeweyher, S. Ehlert, S. Grimme, ChemRxiv, 2019, preprint.
     DOI: 10.26434/chemrxiv.8326202.v1
   for GFN-FF:
   * S. Spicher and S. Grimme, Angew. Chem. Int. Ed., 2020, 59, 15665-15673.
     DOI: 10.1002/anie.202004239
   
   for ALPB and GBSA implicit solvation:
   * S. Ehlert, M. Stahn, S. Spicher, S. Grimme, J. Chem. Theory Comput.,
     2021, 17, 4250-4261. DOI: 10.1021/acs.jctc.1c00471
   
   for ddCOSMO and CPCM-X implicit solvation:
   * M. Stahn, S. Ehlert, S. Grimme, J. Phys. Chem. A,
     2023, XX, XXXX-XXXX. DOI: 10.1021/acs.jpca.3c04382
   
   for DFT-D4:
   * E. Caldeweyher, C. Bannwarth and S. Grimme, J. Chem. Phys., 2017,
     147, 034112. DOI: 10.1063/1.4993215
   * E. Caldeweyher, S. Ehlert, A. Hansen, H. Neugebauer, S. Spicher,
     C. Bannwarth and S. Grimme, J. Chem. Phys., 2019, 150, 154122.
     DOI: 10.1063/1.5090222
   * E. Caldeweyher, J.-M. Mewes, S. Ehlert and S. Grimme, Phys. Chem. Chem. Phys.
     2020, 22, 8499-8512. DOI: 10.1039/D0CP00502A
   
   for sTDA-xTB:
   * S. Grimme and C. Bannwarth, J. Chem. Phys., 2016, 145, 054103.
     DOI: 10.1063/1.4959605
   
   in the mass-spec context:
   * V. Asgeirsson, C. Bauer and S. Grimme, Chem. Sci., 2017, 8, 4879.
     DOI: 10.1039/c7sc00601b
   * J. Koopman and S. Grimme, ACS Omega 2019, 4, 12, 15120-15133.
     DOI: 10.1021/acsomega.9b02011
   
   for metadynamics refer to:
   * S. Grimme, J. Chem. Theory Comput., 2019, 155, 2847-2862
     DOI: 10.1021/acs.jctc.9b00143
   
   for SPH calculations refer to:
   * S. Spicher and S. Grimme, J. Chem. Theory Comput., 2021, 17, 1701-1714
     DOI: 10.1021/acs.jctc.0c01306
   
   for ONIOM refer to:
   * C. Plett, A. Katbashev, S. Ehlert, S. Grimme, M. Bursch,
     Phys. Chem. Chem. Phys., 2023, 25, 17860-17868. DOI: 10.1039/D3CP02178E
   
   for DIPRO refer to:
   * J. Kohn, N. Gildemeister, S. Grimme, D. Fazzi, A. Hansen,
     J. Chem. Phys., 2023, just accepted.
   
   for PTB refer to:
   * S. Grimme, M. Mueller, A. Hansen, J. Chem. Phys., 2023, 158, 124111.
     DOI: 10.1063/5.0137838
   
   with help from (in alphabetical order)
   P. Atkinson, C. Bannwarth, F. Bohle, G. Brandenburg, E. Caldeweyher
   M. Checinski, S. Dohm, S. Ehlert, S. Ehrlich, I. Gerasimov, C. Hölzer
   A. Katbashev, J. Kohn, J. Koopman, C. Lavigne, S. Lehtola, F. März, M. Müller,
   F. Musil, H. Neugebauer, J. Pisarek, C. Plett, P. Pracht, F. Pultar,
   J. Seibert, P. Shushkov, S. Spicher, M. Stahn, M. Steiner, T. Strunk,
   J. Stückrath, T. Rose, and J. Unsleber
   
 * started run on 2026/01/25 at 20:06:37.741     
   ID    Z sym.   atoms
    1    6 C      1, 2, 5-14, 17, 18
    2    8 O      3, 15
    3    7 N      4, 16
    4    1 H      19-44

           -------------------------------------------------
          |                Calculation Setup                |
           -------------------------------------------------

          program call               : xtb /home/tuu61186/STEPs/1_xTB_structureOPT/../0_openBable_SMILES/out/xyz/STEPs_0004.xyz --gfn 2 --opt
          hostname                   : c01
          coordinate file            : /home/tuu61186/STEPs/1_xTB_structureOPT/../0_openBable_SMILES/out/xyz/STEPs_0004.xyz
          omp threads                :                     1


           -------------------------------------------------
          |                 G F N 2 - x T B                 |
           -------------------------------------------------

        Reference                      10.1021/acs.jctc.8b01176
      * Hamiltonian:
        H0-scaling (s, p, d)           1.850000    2.230000    2.230000
        zeta-weighting                 0.500000
      * Dispersion:
        s8                             2.700000
        a1                             0.520000
        a2                             5.000000
        s9                             5.000000
      * Repulsion:
        kExp                           1.500000    1.000000
        rExp                           1.000000
      * Coulomb:
        alpha                          2.000000
        third order                    shell-resolved
        anisotropic                    true
        a3                             3.000000
        a5                             4.000000
        cn-shift                       1.200000
        cn-exp                         4.000000
        max-rad                        5.000000

q/qsh data taken from xtbrestart
CAMM data taken from xtbrestart

          ...................................................
          :                      SETUP                      :
          :.................................................:
          :  # basis functions                  98          :
          :  # atomic orbitals                  98          :
          :  # shells                           62          :
          :  # electrons                       104          :
          :  max. iterations                   250          :
          :  Hamiltonian                  GFN2-xTB          :
          :  restarted?                       true          :
          :  GBSA solvation                  false          :
          :  PC potential                    false          :
          :  electronic temp.          300.0000000     K    :
          :  accuracy                    1.0000000          :
          :  -> integral cutoff          0.2500000E+02      :
          :  -> integral neglect         0.1000000E-07      :
          :  -> SCF convergence          0.1000000E-05 Eh   :
          :  -> wf. convergence          0.1000000E-03 e    :
          :  Broyden damping             0.4000000          :
          :  net charge                          0          :
          :  unpaired electrons                  0          :
          ...................................................

 iter      E             dE          RMSdq      gap      omega  full diag
   1    -57.9532301 -0.579532E+02  0.358E+00    4.37       0.0  T
   2    -57.9585109 -0.528079E-02  0.208E+00    4.27       1.0  T
   3    -57.9589276 -0.416781E-03  0.240E-01    4.42       1.0  T
   4    -57.9599513 -0.102367E-02  0.939E-02    4.27       1.0  T
   5    -57.9599859 -0.345977E-04  0.461E-02    4.29       1.0  T
   6    -57.9600007 -0.147818E-04  0.989E-03    4.28       1.5  T
   7    -57.9600014 -0.659978E-06  0.474E-03    4.28       3.2  T
   8    -57.9600015 -0.116312E-06  0.154E-03    4.28       9.8  T
   9    -57.9600015 -0.116666E-07  0.616E-04    4.28      24.5  T
  10    -57.9600015 -0.354094E-08  0.220E-04    4.28      68.5  T

   *** convergence criteria satisfied after 10 iterations ***

         #    Occupation            Energy/Eh            Energy/eV
      -------------------------------------------------------------
         1        2.0000           -0.6900120             -18.7762
       ...           ...                  ...                  ...
        46        2.0000           -0.4227701             -11.5042
        47        2.0000           -0.4203995             -11.4397
        48        2.0000           -0.4165466             -11.3348
        49        2.0000           -0.4022448             -10.9456
        50        2.0000           -0.3875952             -10.5470
        51        2.0000           -0.3808800             -10.3643
        52        2.0000           -0.3723535             -10.1323 (HOMO)
        53                         -0.2150805              -5.8526 (LUMO)
        54                         -0.2030620              -5.5256
        55                         -0.0641828              -1.7465
        56                         -0.0231237              -0.6292
        57                          0.0292000               0.7946
       ...                                ...                  ...
        98                          0.5743785              15.6296
      -------------------------------------------------------------
                  HL-Gap            0.1572730 Eh            4.2796 eV
             Fermi-level           -0.2937170 Eh           -7.9924 eV

 SCC (total)                   0 d,  0 h,  0 min,  0.036 sec
 SCC setup                      ...        0 min,  0.000 sec (  0.499%)
 Dispersion                     ...        0 min,  0.000 sec (  1.046%)
 classical contributions        ...        0 min,  0.000 sec (  0.319%)
 integral evaluation            ...        0 min,  0.005 sec ( 14.023%)
 iterations                     ...        0 min,  0.015 sec ( 40.831%)
 molecular gradient             ...        0 min,  0.015 sec ( 42.913%)
 printout                       ...        0 min,  0.000 sec (  0.343%)

         :::::::::::::::::::::::::::::::::::::::::::::::::::::
         ::                     SUMMARY                     ::
         :::::::::::::::::::::::::::::::::::::::::::::::::::::
         :: total energy             -57.270248924272 Eh    ::
         :: gradient norm              0.065211513653 Eh/a0 ::
         :: HOMO-LUMO gap              4.279617117958 eV    ::
         ::.................................................::
         :: SCC energy               -57.959437996903 Eh    ::
         :: -> isotropic ES            0.080319377523 Eh    ::
         :: -> anisotropic ES          0.009533630269 Eh    ::
         :: -> anisotropic XC          0.023356250021 Eh    ::
         :: -> dispersion             -0.039833860068 Eh    ::
         :: repulsion energy           0.689189072632 Eh    ::
         :: add. restraining           0.000000000000 Eh    ::
         :: total charge              -0.000000000000 e     ::
         :::::::::::::::::::::::::::::::::::::::::::::::::::::

      ----------------------------------------------------------- 
     |                   =====================                   |
     |                        A N C O P T                        |
     |                   =====================                   |
     |               Approximate Normal Coordinate               |
     |                Rational Function Optimizer                |
      ----------------------------------------------------------- 
      ----------------------------------------------------------- 
     |                   =====================                   |
     |                        A N C O P T                        |
     |                   =====================                   |
     |               Approximate Normal Coordinate               |
     |                Rational Function Optimizer                |
      ----------------------------------------------------------- 

          ...................................................
          :                      SETUP                      :
          :.................................................:
          :   optimization level            normal          :
          :   max. optcycles                   200          :
          :   ANC micro-cycles                  20          :
          :   degrees of freedom               126          :
          :.................................................:
          :   RF solver                   davidson          :
          :   write xtbopt.log                true          :
          :   linear?                        false          :
          :   energy convergence         0.5000000E-05 Eh   :
          :   grad. convergence          0.1000000E-02 Eh/α :
          :   maxmium RF displ.          1.0000000          :
          :   Hlow (freq-cutoff)         0.1000000E-01      :
          :   Hmax (freq-cutoff)         5.0000000          :
          :   S6 in model hess.         20.0000000          :
          ...................................................

generating ANC from exact Hessian ...
Using Lindh-Hessian (1995)
 Shifting diagonal of input Hessian by    9.7679688638743628E-003
 Lowest  eigenvalues of input Hessian
    0.000000    0.000000    0.000000    0.000000    0.000000    0.000000
    0.010000    0.010348    0.010425    0.010469    0.010845    0.012105
    0.012672    0.013590    0.014015    0.015144    0.015572    0.016635
 Highest eigenvalues
    1.428570    1.519489    1.669790    1.718263    2.150972    2.153591


........................................................................
.............................. CYCLE    1 ..............................
........................................................................

 iter      E             dE          RMSdq      gap      omega  full diag
   1    -57.9600015 -0.579600E+02  0.658E-05    4.28       0.0  T
   2    -57.9600015 -0.570779E-10  0.341E-05    4.28     441.7  T
   3    -57.9600015 -0.112479E-10  0.194E-05    4.28     777.1  T
     SCC iter.                  ...        0 min,  0.005 sec
     gradient                   ...        0 min,  0.015 sec
 * total energy  :   -57.2702489 Eh     change       -0.3077503E-09 Eh
   gradient norm :     0.0652133 Eh/α   predicted     0.0000000E+00 (-100.00%)
   displ. norm   :     0.3805164 α      lambda       -0.1138596E-01
   maximum displ.:     0.1363757 α      in ANC's #12, #28, #9, ...

........................................................................
.............................. CYCLE    2 ..............................
........................................................................

 iter      E             dE          RMSdq      gap      omega  full diag
   1    -57.9916035 -0.579916E+02  0.171E-01    4.48       0.0  T
   2    -57.9917472 -0.143681E-03  0.104E-01    4.45       1.0  T
   3    -57.9917487 -0.147499E-05  0.430E-02    4.47       1.0  T
   4    -57.9917657 -0.169611E-04  0.659E-03    4.45       2.3  T
   5    -57.9917664 -0.695077E-06  0.312E-03    4.46       4.8  T
   6    -57.9917664 -0.426263E-07  0.101E-03    4.46      14.9  T
   7    -57.9917664 -0.361997E-08  0.413E-04    4.46      36.5  T
   8    -57.9917664 -0.740343E-09  0.134E-04    4.46     112.2  T
     SCC iter.                  ...        0 min,  0.011 sec
     gradient                   ...        0 min,  0.015 sec
 * total energy  :   -57.2778843 Eh     change       -0.7635355E-02 Eh
   gradient norm :     0.0205911 Eh/α   predicted    -0.6520541E-02 ( -14.60%)
   displ. norm   :     0.3868225 α      lambda       -0.3509783E-02
   maximum displ.:     0.1912677 α      in ANC's #12, #6, #9, ...

........................................................................
.............................. CYCLE    3 ..............................
........................................................................

 iter      E             dE          RMSdq      gap      omega  full diag
   1    -58.0087575 -0.580088E+02  0.109E-01    4.55       0.0  T
   2    -58.0088509 -0.933748E-04  0.651E-02    4.54       1.0  T
   3    -58.0088550 -0.410010E-05  0.301E-02    4.55       1.0  T
   4    -58.0088569 -0.192585E-05  0.410E-03    4.54       3.7  T
   5    -58.0088573 -0.369402E-06  0.169E-03    4.54       8.9  T
   6    -58.0088573 -0.101483E-07  0.520E-04    4.54      29.0  T
   7    -58.0088573 -0.130636E-08  0.194E-04    4.54      77.9  T
     SCC iter.                  ...        0 min,  0.009 sec
     gradient                   ...        0 min,  0.015 sec
 * total energy  :   -57.2801219 Eh     change       -0.2237662E-02 Eh
   gradient norm :     0.0106831 Eh/α   predicted    -0.2020428E-02 (  -9.71%)
   displ. norm   :     0.3330721 α      lambda       -0.1214830E-02
   maximum displ.:     0.1763849 α      in ANC's #6, #12, #9, ...

........................................................................
.............................. CYCLE    4 ..............................
........................................................................

 iter      E             dE          RMSdq      gap      omega  full diag
   1    -58.0130110 -0.580130E+02  0.661E-02    4.55       0.0  T
   2    -58.0130441 -0.331329E-04  0.385E-02    4.56       1.0  T
   3    -58.0130456 -0.140276E-05  0.171E-02    4.55       1.0  T
   4    -58.0130461 -0.520174E-06  0.177E-03    4.55       8.5  T
   5    -58.0130461 -0.245228E-07  0.807E-04    4.55      18.7  T
   6    -58.0130461 -0.232687E-08  0.198E-04    4.55      76.0  T
     SCC iter.                  ...        0 min,  0.008 sec
     gradient                   ...        0 min,  0.015 sec
 * total energy  :   -57.2809993 Eh     change       -0.8773208E-03 Eh
   gradient norm :     0.0076114 Eh/α   predicted    -0.6748741E-03 ( -23.08%)
   displ. norm   :     0.3767996 α      lambda       -0.8797371E-03
   maximum displ.:     0.2243155 α      in ANC's #6, #9, #3, ...

........................................................................
.............................. CYCLE    5 ..............................
........................................................................

 iter      E             dE          RMSdq      gap      omega  full diag
   1    -58.0139453 -0.580139E+02  0.657E-02    4.55       0.0  T
   2    -58.0139589 -0.136164E-04  0.380E-02    4.56       1.0  T
   3    -58.0139591 -0.168299E-06  0.118E-02    4.55       1.3  T
   4    -58.0139601 -0.976905E-06  0.179E-03    4.56       8.4  T
   5    -58.0139601 -0.262532E-07  0.873E-04    4.55      17.3  T
   6    -58.0139601 -0.424831E-08  0.232E-04    4.56      65.0  T
     SCC iter.                  ...        0 min,  0.008 sec
     gradient                   ...        0 min,  0.015 sec
 * total energy  :   -57.2816206 Eh     change       -0.6213424E-03 Eh
   gradient norm :     0.0061148 Eh/α   predicted    -0.5023291E-03 ( -19.15%)
   displ. norm   :     0.3178323 α      lambda       -0.4914438E-03
   maximum displ.:     0.1760026 α      in ANC's #6, #1, #3, ...

........................................................................
.............................. CYCLE    6 ..............................
........................................................................

 iter      E             dE          RMSdq      gap      omega  full diag
   1    -58.0128988 -0.580129E+02  0.594E-02    4.55       0.0  T
   2    -58.0129020 -0.323736E-05  0.346E-02    4.56       1.0  T
   3    -58.0129017  0.318057E-06  0.591E-03    4.55       2.6  T
   4    -58.0129025 -0.817113E-06  0.139E-03    4.55      10.8  T
   5    -58.0129026 -0.129390E-07  0.670E-04    4.55      22.5  T
   6    -58.0129026 -0.215135E-08  0.208E-04    4.55      72.3  T
     SCC iter.                  ...        0 min,  0.008 sec
     gradient                   ...        0 min,  0.015 sec
 * total energy  :   -57.2819828 Eh     change       -0.3621879E-03 Eh
   gradient norm :     0.0065503 Eh/α   predicted    -0.2705479E-03 ( -25.30%)
   displ. norm   :     0.3165569 α      lambda       -0.3776117E-03
   maximum displ.:     0.1497152 α      in ANC's #6, #1, #3, ...

........................................................................
.............................. CYCLE    7 ..............................
........................................................................

 iter      E             dE          RMSdq      gap      omega  full diag
   1    -58.0122724 -0.580123E+02  0.603E-02    4.55       0.0  T
   2    -58.0122741 -0.170815E-05  0.353E-02    4.55       1.0  T
   3    -58.0122741 -0.486588E-07  0.375E-03    4.55       4.0  T
   4    -58.0122744 -0.290096E-06  0.131E-03    4.56      11.5  T
   5    -58.0122744 -0.969155E-08  0.641E-04    4.56      23.5  T
   6    -58.0122744 -0.214266E-08  0.187E-04    4.56      80.7  T
     SCC iter.                  ...        0 min,  0.008 sec
     gradient                   ...        0 min,  0.015 sec
 * total energy  :   -57.2822627 Eh     change       -0.2799016E-03 Eh
   gradient norm :     0.0054236 Eh/α   predicted    -0.2077270E-03 ( -25.79%)
   displ. norm   :     0.3012051 α      lambda       -0.2967736E-03
   maximum displ.:     0.1554828 α      in ANC's #1, #15, #3, ...

........................................................................
.............................. CYCLE    8 ..............................
........................................................................

 iter      E             dE          RMSdq      gap      omega  full diag
   1    -58.0123671 -0.580124E+02  0.582E-02    4.55       0.0  T
   2    -58.0123685 -0.136631E-05  0.341E-02    4.56       1.0  T
   3    -58.0123686 -0.710195E-07  0.333E-03    4.56       4.5  T
   4    -58.0123688 -0.222337E-06  0.120E-03    4.56      12.6  T
   5    -58.0123688 -0.634999E-08  0.593E-04    4.56      25.4  T
   6    -58.0123688 -0.264085E-08  0.164E-04    4.56      92.1  T
     SCC iter.                  ...        0 min,  0.008 sec
     gradient                   ...        0 min,  0.015 sec
 * total energy  :   -57.2824899 Eh     change       -0.2272259E-03 Eh
   gradient norm :     0.0042563 Eh/α   predicted    -0.1618498E-03 ( -28.77%)
   displ. norm   :     0.3230761 α      lambda       -0.2758381E-03
   maximum displ.:     0.1738698 α      in ANC's #1, #15, #3, ...

........................................................................
.............................. CYCLE    9 ..............................
........................................................................

 iter      E             dE          RMSdq      gap      omega  full diag
   1    -58.0130636 -0.580131E+02  0.584E-02    4.55       0.0  T
   2    -58.0130650 -0.136953E-05  0.342E-02    4.56       1.0  T
   3    -58.0130650  0.894494E-08  0.359E-03    4.56       4.2  T
   4    -58.0130653 -0.328402E-06  0.123E-03    4.56      12.3  T
   5    -58.0130653 -0.690892E-08  0.602E-04    4.56      25.1  T
   6    -58.0130653 -0.212774E-08  0.172E-04    4.56      87.5  T
     SCC iter.                  ...        0 min,  0.008 sec
     gradient                   ...        0 min,  0.015 sec
 * total energy  :   -57.2826996 Eh     change       -0.2097024E-03 Eh
   gradient norm :     0.0035490 Eh/α   predicted    -0.1523168E-03 ( -27.37%)
   displ. norm   :     0.3270544 α      lambda       -0.2282153E-03
   maximum displ.:     0.1770421 α      in ANC's #1, #15, #3, ...

........................................................................
.............................. CYCLE   10 ..............................
........................................................................

 iter      E             dE          RMSdq      gap      omega  full diag
   1    -58.0136510 -0.580137E+02  0.571E-02    4.56       0.0  T
   2    -58.0136517 -0.691891E-06  0.335E-02    4.56       1.0  T
   3    -58.0136518 -0.100822E-06  0.257E-03    4.56       5.9  T
   4    -58.0136519 -0.162100E-06  0.116E-03    4.56      13.0  T
   5    -58.0136519 -0.410889E-08  0.371E-04    4.56      40.7  T
   6    -58.0136519 -0.863459E-09  0.150E-04    4.56     100.7  T
     SCC iter.                  ...        0 min,  0.008 sec
     gradient                   ...        0 min,  0.015 sec
 * total energy  :   -57.2828654 Eh     change       -0.1657936E-03 Eh
   gradient norm :     0.0034207 Eh/α   predicted    -0.1263154E-03 ( -23.81%)
   displ. norm   :     0.2541091 α      lambda       -0.1422841E-03
   maximum displ.:     0.1373914 α      in ANC's #1, #3, #15, ...

........................................................................
.............................. CYCLE   11 ..............................
........................................................................

 iter      E             dE          RMSdq      gap      omega  full diag
   1    -58.0149189 -0.580149E+02  0.406E-02    4.56       0.0  T
   2    -58.0149197 -0.857055E-06  0.238E-02    4.57       1.0  T
   3    -58.0149197  0.885455E-07  0.306E-03    4.57       4.9  T
   4    -58.0149199 -0.285766E-06  0.921E-04    4.57      16.4  T
   5    -58.0149199 -0.301449E-08  0.415E-04    4.57      36.4  T
     SCC iter.                  ...        0 min,  0.007 sec
     gradient                   ...        0 min,  0.015 sec
 * total energy  :   -57.2829628 Eh     change       -0.9740963E-04 Eh
   gradient norm :     0.0036663 Eh/α   predicted    -0.7573856E-04 ( -22.25%)
   displ. norm   :     0.1962366 α      lambda       -0.7764827E-04
   maximum displ.:     0.1017931 α      in ANC's #1, #3, #15, ...

........................................................................
.............................. CYCLE   12 ..............................
........................................................................

 iter      E             dE          RMSdq      gap      omega  full diag
   1    -58.0144303 -0.580144E+02  0.311E-02    4.57       0.0  T
   2    -58.0144315 -0.113336E-05  0.182E-02    4.57       1.0  T
   3    -58.0144314  0.335693E-07  0.330E-03    4.57       4.6  T
   4    -58.0144316 -0.166335E-06  0.683E-04    4.57      22.1  T
   5    -58.0144316 -0.234238E-08  0.345E-04    4.57      43.7  T
     SCC iter.                  ...        0 min,  0.007 sec
     gradient                   ...        0 min,  0.015 sec
 * total energy  :   -57.2830137 Eh     change       -0.5089775E-04 Eh
   gradient norm :     0.0022757 Eh/α   predicted    -0.4032073E-04 ( -20.78%)
   displ. norm   :     0.1507886 α      lambda       -0.7340817E-04
   maximum displ.:     0.0653988 α      in ANC's #3, #1, #4, ...

........................................................................
.............................. CYCLE   13 ..............................
........................................................................

 iter      E             dE          RMSdq      gap      omega  full diag
   1    -58.0166302 -0.580166E+02  0.267E-02    4.58       0.0  T
   2    -58.0166307 -0.454038E-06  0.156E-02    4.58       1.0  T
   3    -58.0166307  0.295296E-07  0.213E-03    4.58       7.1  T
   4    -58.0166308 -0.126917E-06  0.701E-04    4.58      21.5  T
   5    -58.0166308 -0.223398E-08  0.336E-04    4.58      44.9  T
     SCC iter.                  ...        0 min,  0.007 sec
     gradient                   ...        0 min,  0.015 sec
 * total energy  :   -57.2830518 Eh     change       -0.3811690E-04 Eh
   gradient norm :     0.0031748 Eh/α   predicted    -0.3753877E-04 (  -1.52%)
   displ. norm   :     0.1354992 α      lambda       -0.5627789E-04
   maximum displ.:     0.0695792 α      in ANC's #15, #3, #1, ...

........................................................................
.............................. CYCLE   14 ..............................
........................................................................

 iter      E             dE          RMSdq      gap      omega  full diag
   1    -58.0154116 -0.580154E+02  0.200E-02    4.58       0.0  T
   2    -58.0154119 -0.241167E-06  0.117E-02    4.58       1.3  T
   3    -58.0154119 -0.113215E-07  0.129E-03    4.58      11.7  T
   4    -58.0154119 -0.241582E-07  0.446E-04    4.58      33.8  T
   5    -58.0154119 -0.113563E-08  0.221E-04    4.58      68.1  T
     SCC iter.                  ...        0 min,  0.007 sec
     gradient                   ...        0 min,  0.015 sec
 * total energy  :   -57.2830905 Eh     change       -0.3866137E-04 Eh
   gradient norm :     0.0027380 Eh/α   predicted    -0.2867357E-04 ( -25.83%)
   displ. norm   :     0.1675310 α      lambda       -0.7570996E-04
   maximum displ.:     0.0858162 α      in ANC's #4, #3, #15, ...

........................................................................
.............................. CYCLE   15 ..............................
........................................................................

 iter      E             dE          RMSdq      gap      omega  full diag
   1    -58.0141922 -0.580142E+02  0.265E-02    4.58       0.0  T
   2    -58.0141935 -0.134127E-05  0.156E-02    4.58       1.0  T
   3    -58.0141934  0.915721E-07  0.419E-03    4.58       3.6  T
   4    -58.0141936 -0.234780E-06  0.573E-04    4.58      26.3  T
   5    -58.0141937 -0.298038E-08  0.300E-04    4.58      50.3  T
     SCC iter.                  ...        0 min,  0.007 sec
     gradient                   ...        0 min,  0.015 sec
 * total energy  :   -57.2831411 Eh     change       -0.5063412E-04 Eh
   gradient norm :     0.0029963 Eh/α   predicted    -0.3891853E-04 ( -23.14%)
   displ. norm   :     0.1401681 α      lambda       -0.5497123E-04
   maximum displ.:     0.0721840 α      in ANC's #4, #14, #15, ...

........................................................................
.............................. CYCLE   16 ..............................
........................................................................

 iter      E             dE          RMSdq      gap      omega  full diag
   1    -58.0144272 -0.580144E+02  0.282E-02    4.58       0.0  T
   2    -58.0144274 -0.242809E-06  0.166E-02    4.58       1.0  T
   3    -58.0144274 -0.115056E-07  0.135E-03    4.58      11.2  T
   4    -58.0144275 -0.430479E-07  0.522E-04    4.58      28.9  T
   5    -58.0144275 -0.745651E-09  0.228E-04    4.58      66.1  T
     SCC iter.                  ...        0 min,  0.007 sec
     gradient                   ...        0 min,  0.015 sec
 * total energy  :   -57.2831775 Eh     change       -0.3635980E-04 Eh
   gradient norm :     0.0023256 Eh/α   predicted    -0.2802731E-04 ( -22.92%)
   displ. norm   :     0.1196463 α      lambda       -0.3298412E-04
   maximum displ.:     0.0527573 α      in ANC's #4, #3, #15, ...

........................................................................
.............................. CYCLE   17 ..............................
........................................................................

 iter      E             dE          RMSdq      gap      omega  full diag
   1    -58.0144151 -0.580144E+02  0.201E-02    4.58       0.0  T
   2    -58.0144154 -0.293467E-06  0.119E-02    4.58       1.3  T
   3    -58.0144153  0.102265E-07  0.155E-03    4.58       9.7  T
   4    -58.0144154 -0.444448E-07  0.398E-04    4.58      37.9  T
   5    -58.0144154 -0.847052E-09  0.188E-04    4.58      80.0  T
     SCC iter.                  ...        0 min,  0.007 sec
     gradient                   ...        0 min,  0.015 sec
 * total energy  :   -57.2831990 Eh     change       -0.2151216E-04 Eh
   gradient norm :     0.0018966 Eh/α   predicted    -0.1673318E-04 ( -22.22%)
   displ. norm   :     0.1109209 α      lambda       -0.2340060E-04
   maximum displ.:     0.0482274 α      in ANC's #2, #14, #4, ...

........................................................................
.............................. CYCLE   18 ..............................
........................................................................

 iter      E             dE          RMSdq      gap      omega  full diag
   1    -58.0160094 -0.580160E+02  0.202E-02    4.58       0.0  T
   2    -58.0160099 -0.483872E-06  0.119E-02    4.58       1.3  T
   3    -58.0160099  0.266601E-07  0.226E-03    4.58       6.7  T
   4    -58.0160099 -0.843992E-07  0.485E-04    4.58      31.1  T
   5    -58.0160099 -0.144939E-08  0.235E-04    4.58      64.1  T
     SCC iter.                  ...        0 min,  0.007 sec
     gradient                   ...        0 min,  0.015 sec
 * total energy  :   -57.2832162 Eh     change       -0.1717905E-04 Eh
   gradient norm :     0.0016047 Eh/α   predicted    -0.1176473E-04 ( -31.52%)
   displ. norm   :     0.1451810 α      lambda       -0.1721708E-04
   maximum displ.:     0.0766715 α      in ANC's #1, #15, #3, ...

........................................................................
.............................. CYCLE   19 ..............................
........................................................................

 iter      E             dE          RMSdq      gap      omega  full diag
   1    -58.0149583 -0.580150E+02  0.212E-02    4.58       0.0  T
   2    -58.0149586 -0.255968E-06  0.125E-02    4.58       1.2  T
   3    -58.0149586  0.994079E-08  0.146E-03    4.58      10.3  T
   4    -58.0149586 -0.476007E-07  0.475E-04    4.58      31.8  T
   5    -58.0149586 -0.160193E-08  0.243E-04    4.58      62.0  T
     SCC iter.                  ...        0 min,  0.007 sec
     gradient                   ...        0 min,  0.015 sec
 * total energy  :   -57.2832314 Eh     change       -0.1517810E-04 Eh
   gradient norm :     0.0025230 Eh/α   predicted    -0.8690720E-05 ( -42.74%)
   displ. norm   :     0.0812930 α      lambda       -0.3052546E-04
   maximum displ.:     0.0370095 α      in ANC's #2, #1, #16, ...

........................................................................
.............................. CYCLE   20 ..............................
........................................................................

 iter      E             dE          RMSdq      gap      omega  full diag
   1    -58.0150435 -0.580150E+02  0.126E-02    4.58       0.0  T
   2    -58.0150436 -0.109299E-06  0.746E-03    4.58       2.0  T
   3    -58.0150436  0.564632E-08  0.103E-03    4.58      14.6  T
   4    -58.0150436 -0.234963E-07  0.286E-04    4.58      52.8  T
   5    -58.0150436 -0.247560E-09  0.119E-04    4.58     127.0  T
     SCC iter.                  ...        0 min,  0.007 sec
     gradient                   ...        0 min,  0.015 sec
 * total energy  :   -57.2832555 Eh     change       -0.2413469E-04 Eh
   gradient norm :     0.0020831 Eh/α   predicted    -0.1536662E-04 ( -36.33%)
   displ. norm   :     0.2123209 α      lambda       -0.5804400E-04
   maximum displ.:     0.1107717 α      in ANC's #2, #16, #1, ...
 * RMSD in coord.:     0.4950990 α      energy gain  -0.1300658E-01 Eh

generating ANC from exact Hessian ...
Using Lindh-Hessian (1995)
 Shifting diagonal of input Hessian by    9.6766551491254491E-003
 Lowest  eigenvalues of input Hessian
    0.000000    0.000000    0.000000    0.000000    0.000000    0.000000
    0.010000    0.010375    0.010436    0.010548    0.011076    0.012416
    0.012909    0.014668    0.014811    0.016121    0.016478    0.017854
 Highest eigenvalues
    1.553525    1.585349    1.824782    1.873323    2.268378    2.313923


........................................................................
.............................. CYCLE   21 ..............................
........................................................................

 iter      E             dE          RMSdq      gap      omega  full diag
   1    -58.0144394 -0.580144E+02  0.309E-02    4.59       0.0  T
   2    -58.0144399 -0.521734E-06  0.183E-02    4.59       1.0  T
   3    -58.0144398  0.420934E-07  0.230E-03    4.59       6.6  T
   4    -58.0144400 -0.122436E-06  0.611E-04    4.59      24.7  T
   5    -58.0144400 -0.162473E-08  0.267E-04    4.59      56.4  T
     SCC iter.                  ...        0 min,  0.007 sec
     gradient                   ...        0 min,  0.015 sec
 * total energy  :   -57.2832955 Eh     change       -0.3997695E-04 Eh
   gradient norm :     0.0030865 Eh/α   predicted     0.0000000E+00 (-100.00%)
   displ. norm   :     0.0288890 α      lambda       -0.2905101E-04
   maximum displ.:     0.0121503 α      in ANC's #4, #2, #10, ...

........................................................................
.............................. CYCLE   22 ..............................
........................................................................

 iter      E             dE          RMSdq      gap      omega  full diag
   1    -58.0152914 -0.580153E+02  0.805E-03    4.59       0.0  T
   2    -58.0152915 -0.112407E-06  0.465E-03    4.59       3.2  T
   3    -58.0152915 -0.468754E-08  0.937E-04    4.59      16.1  T
   4    -58.0152915 -0.748912E-08  0.271E-04    4.59      55.5  T
     SCC iter.                  ...        0 min,  0.005 sec
     gradient                   ...        0 min,  0.015 sec
 * total energy  :   -57.2833173 Eh     change       -0.2183832E-04 Eh
   gradient norm :     0.0012532 Eh/α   predicted    -0.1454897E-04 ( -33.38%)
   displ. norm   :     0.0905283 α      lambda       -0.2815012E-04
   maximum displ.:     0.0417731 α      in ANC's #2, #4, #10, ...

........................................................................
.............................. CYCLE   23 ..............................
........................................................................

 iter      E             dE          RMSdq      gap      omega  full diag
   1    -58.0161471 -0.580161E+02  0.170E-02    4.58       0.0  T
   2    -58.0161474 -0.236971E-06  0.100E-02    4.58       1.5  T
   3    -58.0161474 -0.101980E-07  0.131E-03    4.58      11.5  T
   4    -58.0161474 -0.290341E-07  0.465E-04    4.58      32.5  T
   5    -58.0161474 -0.823164E-09  0.160E-04    4.58      94.1  T
     SCC iter.                  ...        0 min,  0.007 sec
     gradient                   ...        0 min,  0.015 sec
 * total energy  :   -57.2833413 Eh     change       -0.2402617E-04 Eh
   gradient norm :     0.0021108 Eh/α   predicted    -0.1412654E-04 ( -41.20%)
   displ. norm   :     0.0507626 α      lambda       -0.1609186E-04
   maximum displ.:     0.0245589 α      in ANC's #2, #4, #16, ...

........................................................................
.............................. CYCLE   24 ..............................
........................................................................

 iter      E             dE          RMSdq      gap      omega  full diag
   1    -58.0159441 -0.580159E+02  0.835E-03    4.58       0.0  T
   2    -58.0159441 -0.258991E-07  0.494E-03    4.58       3.1  T
   3    -58.0159441 -0.359460E-08  0.384E-04    4.58      39.3  T
   4    -58.0159441 -0.157964E-08  0.174E-04    4.58      86.5  T
     SCC iter.                  ...        0 min,  0.005 sec
     gradient                   ...        0 min,  0.016 sec
 * total energy  :   -57.2833563 Eh     change       -0.1496049E-04 Eh
   gradient norm :     0.0018723 Eh/α   predicted    -0.8121582E-05 ( -45.71%)
   displ. norm   :     0.4114958 α      lambda       -0.8115470E-04
   maximum displ.:     0.1935072 α      in ANC's #2, #4, #16, ...

........................................................................
.............................. CYCLE   25 ..............................
........................................................................

 iter      E             dE          RMSdq      gap      omega  full diag
   1    -58.0122725 -0.580123E+02  0.681E-02    4.58       0.0  T
   2    -58.0122759 -0.338085E-05  0.400E-02    4.58       1.0  T
   3    -58.0122762 -0.287104E-06  0.435E-03    4.58       3.5  T
   4    -58.0122763 -0.112750E-06  0.155E-03    4.58       9.7  T
   5    -58.0122763 -0.713248E-08  0.721E-04    4.58      20.9  T
   6    -58.0122763 -0.489980E-08  0.153E-04    4.58      98.4  T
     SCC iter.                  ...        0 min,  0.008 sec
     gradient                   ...        0 min,  0.015 sec
 * total energy  :   -57.2833429 Eh     change        0.1336939E-04 Eh
   gradient norm :     0.0070512 Eh/α   predicted    -0.4364111E-04 (-426.43%)
   displ. norm   :     0.1519337 α      lambda       -0.1220806E-03
   maximum displ.:     0.0678096 α      in ANC's #2, #4, #16, ...

........................................................................
.............................. CYCLE   26 ..............................
........................................................................

 iter      E             dE          RMSdq      gap      omega  full diag
   1    -58.0146144 -0.580146E+02  0.277E-02    4.58       0.0  T
   2    -58.0146155 -0.102179E-05  0.161E-02    4.58       1.0  T
   3    -58.0146155 -0.665376E-07  0.260E-03    4.58       5.8  T
   4    -58.0146156 -0.214852E-07  0.703E-04    4.58      21.4  T
   5    -58.0146156 -0.118475E-08  0.317E-04    4.58      47.5  T
     SCC iter.                  ...        0 min,  0.007 sec
     gradient                   ...        0 min,  0.015 sec
 * total energy  :   -57.2834059 Eh     change       -0.6296178E-04 Eh
   gradient norm :     0.0021502 Eh/α   predicted    -0.6245471E-04 (  -0.81%)
   displ. norm   :     0.0221450 α      lambda       -0.1351796E-04
   maximum displ.:     0.0117805 α      in ANC's #16, #6, #2, ...

........................................................................
.............................. CYCLE   27 ..............................
........................................................................

 iter      E             dE          RMSdq      gap      omega  full diag
   1    -58.0150768 -0.580151E+02  0.433E-03    4.58       0.0  T
   2    -58.0150769 -0.388779E-07  0.248E-03    4.58       6.1  T
   3    -58.0150769 -0.176673E-08  0.559E-04    4.58      27.0  T
   4    -58.0150769 -0.163586E-08  0.133E-04    4.58     113.1  T
     SCC iter.                  ...        0 min,  0.005 sec
     gradient                   ...        0 min,  0.015 sec
 * total energy  :   -57.2834177 Eh     change       -0.1179319E-04 Eh
   gradient norm :     0.0012884 Eh/α   predicted    -0.6764248E-05 ( -42.64%)
   displ. norm   :     0.2029071 α      lambda       -0.4732927E-04
   maximum displ.:     0.1132159 α      in ANC's #16, #2, #6, ...

........................................................................
.............................. CYCLE   28 ..............................
........................................................................

 iter      E             dE          RMSdq      gap      omega  full diag
   1    -58.0162722 -0.580163E+02  0.313E-02    4.58       0.0  T
   2    -58.0162728 -0.590839E-06  0.186E-02    4.59       1.0  T
   3    -58.0162727  0.196924E-07  0.228E-03    4.59       6.6  T
   4    -58.0162728 -0.105715E-06  0.651E-04    4.59      23.1  T
   5    -58.0162728 -0.237322E-08  0.307E-04    4.59      49.1  T
     SCC iter.                  ...        0 min,  0.007 sec
     gradient                   ...        0 min,  0.015 sec
 * total energy  :   -57.2834604 Eh     change       -0.4270097E-04 Eh
   gradient norm :     0.0017575 Eh/α   predicted    -0.2410181E-04 ( -43.56%)
   displ. norm   :     0.2620323 α      lambda       -0.3297103E-04
   maximum displ.:     0.1373277 α      in ANC's #16, #2, #15, ...

........................................................................
.............................. CYCLE   29 ..............................
........................................................................

 iter      E             dE          RMSdq      gap      omega  full diag
   1    -58.0145591 -0.580146E+02  0.403E-02    4.59       0.0  T
   2    -58.0145600 -0.912429E-06  0.239E-02    4.59       1.0  T
   3    -58.0145600  0.111967E-07  0.255E-03    4.59       5.9  T
   4    -58.0145601 -0.114781E-06  0.780E-04    4.59      19.3  T
   5    -58.0145601 -0.494445E-08  0.418E-04    4.59      36.1  T
     SCC iter.                  ...        0 min,  0.007 sec
     gradient                   ...        0 min,  0.015 sec
 * total energy  :   -57.2834810 Eh     change       -0.2056154E-04 Eh
   gradient norm :     0.0038281 Eh/α   predicted    -0.1699781E-04 ( -17.33%)
   displ. norm   :     0.0299215 α      lambda       -0.2059400E-04
   maximum displ.:     0.0133288 α      in ANC's #9, #16, #2, ...

........................................................................
.............................. CYCLE   30 ..............................
........................................................................

 iter      E             dE          RMSdq      gap      omega  full diag
   1    -58.0150434 -0.580150E+02  0.652E-03    4.59       0.0  T
   2    -58.0150435 -0.105852E-06  0.377E-03    4.59       4.0  T
   3    -58.0150435 -0.358146E-08  0.934E-04    4.59      16.1  T
   4    -58.0150435 -0.507858E-08  0.224E-04    4.59      67.4  T
     SCC iter.                  ...        0 min,  0.005 sec
     gradient                   ...        0 min,  0.015 sec
 * total energy  :   -57.2834961 Eh     change       -0.1513669E-04 Eh
   gradient norm :     0.0020105 Eh/α   predicted    -0.1031454E-04 ( -31.86%)
   displ. norm   :     0.0756249 α      lambda       -0.2520081E-04
   maximum displ.:     0.0350268 α      in ANC's #2, #15, #16, ...

........................................................................
.............................. CYCLE   31 ..............................
........................................................................

 iter      E             dE          RMSdq      gap      omega  full diag
   1    -58.0152668 -0.580153E+02  0.140E-02    4.59       0.0  T
   2    -58.0152669 -0.152169E-06  0.830E-03    4.59       1.8  T
   3    -58.0152669 -0.740865E-08  0.103E-03    4.59      14.6  T
   4    -58.0152669 -0.166603E-07  0.377E-04    4.59      39.9  T
   5    -58.0152669 -0.828571E-09  0.146E-04    4.59     103.5  T
     SCC iter.                  ...        0 min,  0.007 sec
     gradient                   ...        0 min,  0.015 sec
 * total energy  :   -57.2835142 Eh     change       -0.1816100E-04 Eh
   gradient norm :     0.0008276 Eh/α   predicted    -0.1267916E-04 ( -30.18%)
   displ. norm   :     0.2116596 α      lambda       -0.2224478E-04
   maximum displ.:     0.1035199 α      in ANC's #2, #16, #15, ...

........................................................................
.............................. CYCLE   32 ..............................
........................................................................

 iter      E             dE          RMSdq      gap      omega  full diag
   1    -58.0147616 -0.580148E+02  0.345E-02    4.59       0.0  T
   2    -58.0147620 -0.404356E-06  0.205E-02    4.59       1.0  T
   3    -58.0147621 -0.476979E-07  0.173E-03    4.59       8.7  T
   4    -58.0147621 -0.470416E-07  0.760E-04    4.59      19.8  T
   5    -58.0147621 -0.299394E-08  0.291E-04    4.59      51.8  T
     SCC iter.                  ...        0 min,  0.007 sec
     gradient                   ...        0 min,  0.015 sec
 * total energy  :   -57.2835350 Eh     change       -0.2079812E-04 Eh
   gradient norm :     0.0022452 Eh/α   predicted    -0.1134650E-04 ( -45.44%)
   displ. norm   :     0.0759510 α      lambda       -0.1426225E-04
   maximum displ.:     0.0389656 α      in ANC's #15, #2, #1, ...

........................................................................
.............................. CYCLE   33 ..............................
........................................................................

 iter      E             dE          RMSdq      gap      omega  full diag
   1    -58.0150265 -0.580150E+02  0.120E-02    4.59       0.0  T
   2    -58.0150266 -0.611706E-07  0.704E-03    4.59       2.1  T
   3    -58.0150266 -0.500198E-08  0.723E-04    4.59      20.8  T
   4    -58.0150266 -0.938921E-08  0.282E-04    4.59      53.4  T
     SCC iter.                  ...        0 min,  0.005 sec
     gradient                   ...        0 min,  0.015 sec
 * total energy  :   -57.2835474 Eh     change       -0.1236855E-04 Eh
   gradient norm :     0.0019490 Eh/α   predicted    -0.7173184E-05 ( -42.00%)
   displ. norm   :     0.3784326 α      lambda       -0.4269344E-04
   maximum displ.:     0.1998074 α      in ANC's #15, #2, #1, ...

........................................................................
.............................. CYCLE   34 ..............................
........................................................................

 iter      E             dE          RMSdq      gap      omega  full diag
   1    -58.0144031 -0.580144E+02  0.570E-02    4.60       0.0  T
   2    -58.0144046 -0.156937E-05  0.336E-02    4.60       1.0  T
   3    -58.0144047 -0.111449E-06  0.338E-03    4.60       4.5  T
   4    -58.0144049 -0.174674E-06  0.127E-03    4.60      11.9  T
   5    -58.0144049 -0.289767E-08  0.477E-04    4.60      31.6  T
   6    -58.0144049 -0.188567E-08  0.777E-05    4.60     194.0  T
     SCC iter.                  ...        0 min,  0.008 sec
     gradient                   ...        0 min,  0.015 sec
 * total energy  :   -57.2835676 Eh     change       -0.2018838E-04 Eh
   gradient norm :     0.0042366 Eh/α   predicted    -0.2272523E-04 (  12.57%)
   displ. norm   :     0.0944185 α      lambda       -0.6645528E-04
   maximum displ.:     0.0487048 α      in ANC's #16, #5, #7, ...

........................................................................
.............................. CYCLE   35 ..............................
........................................................................

 iter      E             dE          RMSdq      gap      omega  full diag
   1    -58.0167871 -0.580168E+02  0.214E-02    4.60       0.0  T
   2    -58.0167882 -0.109875E-05  0.122E-02    4.60       1.2  T
   3    -58.0167882 -0.423923E-07  0.314E-03    4.60       4.8  T
   4    -58.0167883 -0.417177E-07  0.720E-04    4.60      20.9  T
   5    -58.0167883 -0.360599E-08  0.392E-04    4.60      38.4  T
     SCC iter.                  ...        0 min,  0.007 sec
     gradient                   ...        0 min,  0.015 sec
 * total energy  :   -57.2835821 Eh     change       -0.1450690E-04 Eh
   gradient norm :     0.0027938 Eh/α   predicted    -0.3352489E-04 ( 131.10%)
   displ. norm   :     0.0384254 α      lambda       -0.2695349E-04
   maximum displ.:     0.0154723 α      in ANC's #2, #7, #9, ...

........................................................................
.............................. CYCLE   36 ..............................
........................................................................

 iter      E             dE          RMSdq      gap      omega  full diag
   1    -58.0159622 -0.580160E+02  0.857E-03    4.60       0.0  T
   2    -58.0159624 -0.218500E-06  0.491E-03    4.60       3.1  T
   3    -58.0159624 -0.978538E-09  0.155E-03    4.60       9.7  T
   4    -58.0159625 -0.173118E-07  0.303E-04    4.60      49.8  T
   5    -58.0159625 -0.877748E-09  0.160E-04    4.60      94.3  T
     SCC iter.                  ...        0 min,  0.007 sec
     gradient                   ...        0 min,  0.015 sec
 * total energy  :   -57.2836005 Eh     change       -0.1837089E-04 Eh
   gradient norm :     0.0011815 Eh/α   predicted    -0.1350009E-04 ( -26.51%)
   displ. norm   :     0.1328333 α      lambda       -0.1753320E-04
   maximum displ.:     0.0725686 α      in ANC's #15, #5, #2, ...

........................................................................
.............................. CYCLE   37 ..............................
........................................................................

 iter      E             dE          RMSdq      gap      omega  full diag
   1    -58.0149657 -0.580150E+02  0.199E-02    4.60       0.0  T
   2    -58.0149660 -0.292667E-06  0.118E-02    4.60       1.3  T
   3    -58.0149660  0.130993E-07  0.163E-03    4.60       9.2  T
   4    -58.0149660 -0.464058E-07  0.428E-04    4.60      35.3  T
   5    -58.0149660 -0.132384E-08  0.219E-04    4.60      68.9  T
     SCC iter.                  ...        0 min,  0.007 sec
     gradient                   ...        0 min,  0.016 sec
 * total energy  :   -57.2836153 Eh     change       -0.1484645E-04 Eh
   gradient norm :     0.0020635 Eh/α   predicted    -0.8835942E-05 ( -40.48%)
   displ. norm   :     0.0546443 α      lambda       -0.1069255E-04
   maximum displ.:     0.0325147 α      in ANC's #5, #15, #1, ...

........................................................................
.............................. CYCLE   38 ..............................
........................................................................

 iter      E             dE          RMSdq      gap      omega  full diag
   1    -58.0151856 -0.580152E+02  0.810E-03    4.60       0.0  T
   2    -58.0151857 -0.274333E-07  0.482E-03    4.60       3.1  T
   3    -58.0151857 -0.130878E-08  0.415E-04    4.60      36.3  T
   4    -58.0151857 -0.284306E-08  0.146E-04    4.60     103.5  T
     SCC iter.                  ...        0 min,  0.005 sec
     gradient                   ...        0 min,  0.015 sec
 * total energy  :   -57.2836240 Eh     change       -0.8643572E-05 Eh
   gradient norm :     0.0014101 Eh/α   predicted    -0.5367230E-05 ( -37.90%)
   displ. norm   :     0.1525764 α      lambda       -0.1220099E-04
   maximum displ.:     0.0880317 α      in ANC's #5, #15, #2, ...

........................................................................
.............................. CYCLE   39 ..............................
........................................................................

 iter      E             dE          RMSdq      gap      omega  full diag
   1    -58.0153757 -0.580154E+02  0.218E-02    4.60       0.0  T
   2    -58.0153758 -0.119506E-06  0.130E-02    4.60       1.2  T
   3    -58.0153758 -0.942982E-08  0.940E-04    4.60      16.0  T
   4    -58.0153758 -0.161637E-07  0.376E-04    4.60      40.1  T
     SCC iter.                  ...        0 min,  0.005 sec
     gradient                   ...        0 min,  0.015 sec
 * total energy  :   -57.2836337 Eh     change       -0.9730325E-05 Eh
   gradient norm :     0.0006960 Eh/α   predicted    -0.6164286E-05 ( -36.65%)
   displ. norm   :     0.0448866 α      lambda       -0.2744572E-05
   maximum displ.:     0.0264014 α      in ANC's #5, #15, #2, ...

........................................................................
.............................. CYCLE   40 ..............................
........................................................................

 iter      E             dE          RMSdq      gap      omega  full diag
   1    -58.0155576 -0.580156E+02  0.686E-03    4.60       0.0  T
   2    -58.0155576 -0.311055E-07  0.402E-03    4.60       3.7  T
   3    -58.0155576 -0.595080E-10  0.522E-04    4.60      28.9  T
   4    -58.0155576 -0.547507E-08  0.165E-04    4.60      91.4  T
     SCC iter.                  ...        0 min,  0.005 sec
     gradient                   ...        0 min,  0.015 sec
 * total energy  :   -57.2836372 Eh     change       -0.3492556E-05 Eh
   gradient norm :     0.0005643 Eh/α   predicted    -0.1374143E-05 ( -60.66%)
   displ. norm   :     0.1041765 α      lambda       -0.7438854E-05
   maximum displ.:     0.0664977 α      in ANC's #5, #15, #2, ...

   *** GEOMETRY OPTIMIZATION CONVERGED AFTER 40 ITERATIONS ***

------------------------------------------------------------------------
 total energy gain   :        -0.0133883 Eh       -8.4013 kcal/mol
 total RMSD          :         0.6518942 a0        0.3450 Å
 total power (kW/mol):        -0.8787724 (step)  -30.4504 (real)
------------------------------------------------------------------------

 ANCopt (total)                0 d,  0 h,  0 min,  1.154 sec
 optimizer setup                ...        0 min,  0.000 sec (  0.017%)
 model hessian                  ...        0 min,  0.046 sec (  4.011%)
 ANC generation                 ...        0 min,  0.003 sec (  0.227%)
 coordinate transformation      ...        0 min,  0.000 sec (  0.026%)
 single point calculation       ...        0 min,  1.097 sec ( 94.995%)
 optimization log               ...        0 min,  0.004 sec (  0.366%)
 hessian update                 ...        0 min,  0.000 sec (  0.039%)
 rational function              ...        0 min,  0.003 sec (  0.229%)

================
 final structure:
================
44
 xtb: 6.7.1 (edcfbbe)
C            2.62503267475538        1.85032616754376       -0.43016094941675
C            3.30074422515221        0.57971135513960        0.02394293435213
O            3.89560717101160       -0.11663807137671       -0.78342544373291
N            3.24021403429924        0.22381630895919        1.33490898585314
C            2.54136375987110        0.88838152935858        2.43294761563223
C            2.97039969805011        2.34568758836696        2.61933573060352
C            1.00738242828533        0.71423909892677        2.35153702556431
C            0.35250882205971        1.08298167690155        3.68557449906077
C           -1.16439086112707        0.92650413034029        3.60958880681105
C           -1.54283180922755       -0.49960497305125        3.22500771774156
C           -0.89327719255387       -0.87361534243686        1.89710006943437
C            0.62255128051286       -0.72101400602648        1.98260610378336
C            4.02474999827516       -0.93775701683859        1.70011158226986
C            5.34116609178652       -0.53417769289989        2.36119304921689
O            5.63075092403598        0.62625662682483        2.58087129233322
N            6.15564595623410       -1.56284186598822        2.69172433388251
C            5.84483042820613       -2.94659457122562        2.42242813867386
C            7.43149948177252       -1.28329153246985        3.31201899075864
H            2.55999234594642        1.81661780907461       -1.51538154554597
H            3.24329464143983        2.69981087783826       -0.15068543994642
H            1.63261456767406        1.97287795477767       -0.01399842385548
H            2.87408421730691        0.35302810693090        3.32868565366515
H            2.42268947364433        3.02483421561996        1.97412052027945
H            4.03499072951985        2.42398446814550        2.41670990640884
H            2.80444649927331        2.64663620253098        3.65016437629718
H            0.60065298317736        1.38236978605146        1.58685398250334
H            0.59397353372930        2.11316682029849        3.94932414292330
H            0.74408616793516        0.43358803075613        4.47260970912889
H           -1.56250232401552        1.61893307594210        2.86401218463006
H           -1.60836126390485        1.18390834750920        4.57354319459889
H           -2.62820948725883       -0.59122995537034        3.15012379109561
H           -1.20180436430535       -1.18762884421434        4.00226379500962
H           -1.27957585981754       -0.22406858348329        1.10823909979070
H           -1.14522122219492       -1.90298901754645        1.63372303203565
H            1.07125621774198       -0.99338539721673        1.02548528113107
H            1.00585559805801       -1.40451489187941        2.74500393687813
H            4.24407787526286       -1.47307339605074        0.77082468783802
H            3.45217310408960       -1.59056640337489        2.36434757204689
H            5.64916016551003       -3.11261184163885        1.36055366126041
H            4.97237574461036       -3.27835616264493        2.99260060281758
H            6.69641005929275       -3.55724895963013        2.71411362831068
H            7.50674414524421       -0.20618166408699        3.44797874304785
H            8.25101019194768       -1.62349141104245        2.67535057396047
H            7.49983914868477       -1.77747857734642        4.28362285088551

 Bond Distances (Angstroems)
 ---------------------------
C1-C2=1.5091         C1-H19=1.0877        C1-H20=1.0872        C1-H21=1.0831        C2-C1=1.5091         C2-O3=1.2209         
C2-N4=1.3598         O3-C2=1.2209         N4-C2=1.3598         N4-C5=1.4614         N4-C13=1.4485        C5-N4=1.4614         
C5-C6=1.5305         C5-C7=1.5460         C5-H22=1.0953        C6-C5=1.5305         C6-H23=1.0851        C6-H24=1.0865        
C6-H25=1.0866        C7-C5=1.5460         C7-C8=1.5312         C7-C12=1.5311        C7-H26=1.0939        C8-C7=1.5312         
C8-C9=1.5268         C8-H27=1.0905        C8-H28=1.0929        C9-C8=1.5268         C9-C10=1.5248        C9-H29=1.0926        
C9-H30=1.0921        C10-C9=1.5248        C10-C11=1.5248       C10-H31=1.0918       C10-H32=1.0926       C11-C10=1.5248       
C11-C12=1.5259       C11-H33=1.0924       C11-H34=1.0920       C12-C7=1.5311        C12-C11=1.5259       C12-H35=1.0916       
C12-H36=1.0933       C13-N4=1.4485        C13-C14=1.5274       C13-H37=1.0946       C13-H38=1.0933       C14-C13=1.5274       
C14-O15=1.2160       C14-N16=1.3531       O15-C14=1.2160       N16-C14=1.3531       N16-C17=1.4436       N16-C18=1.4459       
C17-N16=1.4436       C17-H39=1.0924       C17-H40=1.0938       C17-H41=1.0877       C18-N16=1.4459       C18-H42=1.0883       
C18-H43=1.0921       C18-H44=1.0922       H19-C1=1.0877        H20-C1=1.0872        H21-C1=1.0831        H22-C5=1.0953        
H23-C6=1.0851        H24-C6=1.0865        H25-C6=1.0866        H26-C7=1.0939        H27-C8=1.0905        H28-C8=1.0929        
H29-C9=1.0926        H30-C9=1.0921        H31-C10=1.0918       H32-C10=1.0926       H33-C11=1.0924       H34-C11=1.0920       
H35-C12=1.0916       H36-C12=1.0933       H37-C13=1.0946       H38-C13=1.0933       H39-C17=1.0924       H40-C17=1.0938       
H41-C17=1.0877       H42-C18=1.0883       H43-C18=1.0921       H44-C18=1.0922       
 C  H  Rav=1.0908 sigma=0.0031  Rmin=1.0831  Rmax=1.0953    26
 C  C  Rav=1.5278 sigma=0.0086  Rmin=1.5091  Rmax=1.5460    10
 N  C  Rav=1.4187 sigma=0.0444  Rmin=1.3531  Rmax=1.4614     6
 O  C  Rav=1.2185 sigma=0.0024  Rmin=1.2160  Rmax=1.2209     2

 selected bond angles (degree)
 --------------------
H19-C1-C2=107.51               H20-C1-C2=109.02               H20-C1-H19=108.34              H21-C1-C2=112.95               
H21-C1-H19=109.39              H21-C1-H20=109.50              O3-C2-C1=119.96                N4-C2-C1=119.38                
N4-C2-O3=120.66                C5-N4-C2=128.80                C13-N4-C2=115.40               C13-N4-C5=115.74               
C6-C5-N4=112.98                C7-C5-N4=112.56                C7-C5-C6=113.07                H22-C5-N4=104.30               
H22-C5-C6=106.30               H22-C5-C7=106.82               H23-C6-C5=112.46               H24-C6-C5=108.70               
H24-C6-H23=109.79              H25-C6-C5=109.66               H25-C6-H23=108.28              H25-C6-H24=107.85              
C8-C7-C5=110.57                C12-C7-C5=111.57               C12-C7-C8=109.16               H26-C7-C5=109.69               
H26-C7-C8=107.63               H26-C7-C12=108.10              C9-C8-C7=110.91                H27-C8-C7=110.09               
H27-C8-C9=109.20               H28-C8-C7=109.33               H28-C8-C9=109.32               H28-C8-H27=107.93              
C10-C9-C8=110.79               H29-C9-C8=109.33               H29-C9-C10=109.28              H30-C9-C8=109.62               
H30-C9-C10=110.01              H30-C9-H29=107.75              C11-C10-C9=110.08              H31-C10-C9=110.03              
H31-C10-C11=110.07             H32-C10-C9=109.39              H32-C10-C11=109.40             H32-C10-H31=107.83             

 selected dihedral angles (degree)
 ---------------------------------
O3-C2-C1-H19= 14.85           O3-C2-C1-H20=257.61           O3-C2-C1-H21=135.63           N4-C2-C1-H19=194.78           
N4-C2-C1-H20= 77.53           N4-C2-C1-H21=315.56           C5-N4-C2-C1=  2.69            C5-N4-C2-O3=182.62            
C13-N4-C2-C1=185.77           C13-N4-C2-O3=  5.69           C6-C5-N4-C2=302.83            C6-C5-N4-C13=119.75           
C7-C5-N4-C2= 72.40            C7-C5-N4-C13=249.32           H22-C5-N4-C2=187.83           H22-C5-N4-C13=  4.75          
H23-C6-C5-N4= 85.29           H23-C6-C5-C7=315.97           H23-C6-C5-H22=199.08          H24-C6-C5-N4=323.51           
H24-C6-C5-C7=194.19           H24-C6-C5-H22= 77.30          H25-C6-C5-N4=205.82           H25-C6-C5-C7= 76.50           
H25-C6-C5-H22=319.61          C8-C7-C5-N4=164.68            C8-C7-C5-C6=294.21            C8-C7-C5-H22= 50.79           
C12-C7-C5-N4= 42.99           C12-C7-C5-C6=172.52           C12-C7-C5-H22=289.09          H26-C7-C5-N4=283.23           
H26-C7-C5-C6= 52.76           H26-C7-C5-H22=169.34          C9-C8-C7-C5=179.46            C9-C8-C7-C12=302.56           
C9-C8-C7-H26= 59.66           H27-C8-C7-C5= 58.49           H27-C8-C7-C12=181.59          H27-C8-C7-H26=298.69          
H28-C8-C7-C5=300.08           H28-C8-C7-C12= 63.19          H28-C8-C7-H26=180.29          C10-C9-C8-C7= 57.79           
C10-C9-C8-H27=179.28          C10-C9-C8-H28=297.16          H29-C9-C8-C7=297.29           H29-C9-C8-H27= 58.79          
H29-C9-C8-H28=176.66          H30-C9-C8-C7=179.39           H30-C9-C8-H27=300.88          H30-C9-C8-H28= 58.75          
C11-C10-C9-C8=302.87          C11-C10-C9-H29= 63.40         C11-C10-C9-H30=181.50         H31-C10-C9-C8=181.40          
H31-C10-C9-H29=301.92         H31-C10-C9-H30= 60.03         H32-C10-C9-C8= 63.11          H32-C10-C9-H29=183.63         
H32-C10-C9-H30=301.74         
           -------------------------------------------------
          |                Final Singlepoint                |
           -------------------------------------------------

          ...................................................
          :                      SETUP                      :
          :.................................................:
          :  # basis functions                  98          :
          :  # atomic orbitals                  98          :
          :  # shells                           62          :
          :  # electrons                       104          :
          :  max. iterations                   250          :
          :  Hamiltonian                  GFN2-xTB          :
          :  restarted?                      false          :
          :  GBSA solvation                  false          :
          :  PC potential                    false          :
          :  electronic temp.          300.0000000     K    :
          :  accuracy                    1.0000000          :
          :  -> integral cutoff          0.2500000E+02      :
          :  -> integral neglect         0.1000000E-07      :
          :  -> SCF convergence          0.1000000E-05 Eh   :
          :  -> wf. convergence          0.1000000E-03 e    :
          :  Broyden damping             0.4000000          :
          :  net charge                          0          :
          :  unpaired electrons                  0          :
          ...................................................

 iter      E             dE          RMSdq      gap      omega  full diag
   1    -58.0155576 -0.580156E+02  0.624E-05    4.60       0.0  T
   2    -58.0155576 -0.241229E-10  0.351E-05    4.60     429.1  T
   3    -58.0155576 -0.197531E-11  0.176E-05    4.60     858.7  T

   *** convergence criteria satisfied after 3 iterations ***

         #    Occupation            Energy/Eh            Energy/eV
      -------------------------------------------------------------
         1        2.0000           -0.6945946             -18.9009
       ...           ...                  ...                  ...
        46        2.0000           -0.4247554             -11.5582
        47        2.0000           -0.4202015             -11.4343
        48        2.0000           -0.4151688             -11.2973
        49        2.0000           -0.3995444             -10.8722
        50        2.0000           -0.3902187             -10.6184
        51        2.0000           -0.3793870             -10.3236
        52        2.0000           -0.3713473             -10.1049 (HOMO)
        53                         -0.2022093              -5.5024 (LUMO)
        54                         -0.1930948              -5.2544
        55                         -0.0285312              -0.7764
        56                          0.0008392               0.0228
        57                          0.0457771               1.2457
       ...                                ...                  ...
        98                          0.6327712              17.2186
      -------------------------------------------------------------
                  HL-Gap            0.1691380 Eh            4.6025 eV
             Fermi-level           -0.2867783 Eh           -7.8036 eV

 SCC (total)                   0 d,  0 h,  0 min,  0.025 sec
 SCC setup                      ...        0 min,  0.000 sec (  0.600%)
 Dispersion                     ...        0 min,  0.000 sec (  0.874%)
 classical contributions        ...        0 min,  0.000 sec (  0.441%)
 integral evaluation            ...        0 min,  0.005 sec ( 19.242%)
 iterations                     ...        0 min,  0.004 sec ( 16.463%)
 molecular gradient             ...        0 min,  0.015 sec ( 61.919%)
 printout                       ...        0 min,  0.000 sec (  0.421%)

         :::::::::::::::::::::::::::::::::::::::::::::::::::::
         ::                     SUMMARY                     ::
         :::::::::::::::::::::::::::::::::::::::::::::::::::::
         :: total energy             -57.283637193764 Eh    ::
         :: gradient norm              0.000565169671 Eh/a0 ::
         :: HOMO-LUMO gap              4.602479907967 eV    ::
         ::.................................................::
         :: SCC energy               -58.014915293176 Eh    ::
         :: -> isotropic ES            0.081717507123 Eh    ::
         :: -> anisotropic ES          0.007983638923 Eh    ::
         :: -> anisotropic XC          0.022412873319 Eh    ::
         :: -> dispersion             -0.041089278867 Eh    ::
         :: repulsion energy           0.731278099412 Eh    ::
         :: add. restraining           0.000000000000 Eh    ::
         :: total charge              -0.000000000000 e     ::
         :::::::::::::::::::::::::::::::::::::::::::::::::::::

           -------------------------------------------------
          |                Property Printout                |
           -------------------------------------------------

    * Orbital Energies and Occupations

         #    Occupation            Energy/Eh            Energy/eV
      -------------------------------------------------------------
         1        2.0000           -0.6945946             -18.9009
       ...           ...                  ...                  ...
        40        2.0000           -0.4612351             -12.5508
        41        2.0000           -0.4547090             -12.3733
        42        2.0000           -0.4490204             -12.2185
        43        2.0000           -0.4440087             -12.0821
        44        2.0000           -0.4422833             -12.0351
        45        2.0000           -0.4317529             -11.7486
        46        2.0000           -0.4247554             -11.5582
        47        2.0000           -0.4202015             -11.4343
        48        2.0000           -0.4151688             -11.2973
        49        2.0000           -0.3995444             -10.8722
        50        2.0000           -0.3902187             -10.6184
        51        2.0000           -0.3793870             -10.3236
        52        2.0000           -0.3713473             -10.1049 (HOMO)
        53                         -0.2022093              -5.5024 (LUMO)
        54                         -0.1930948              -5.2544
        55                         -0.0285312              -0.7764
        56                          0.0008392               0.0228
        57                          0.0457771               1.2457
        58                          0.0638985               1.7388
        59                          0.0787160               2.1420
        60                          0.0793395               2.1589
        61                          0.0950580               2.5867
        62                          0.0978615               2.6629
        63                          0.1010629               2.7501
       ...                                ...                  ...
        98                          0.6327712              17.2186
      -------------------------------------------------------------
                  HL-Gap            0.1691380 Eh            4.6025 eV
             Fermi-level           -0.2867783 Eh           -7.8036 eV

     #   Z          covCN         q      C6AA      α(0)
     1   6 C        3.754    -0.136    23.171     6.864
     2   6 C        2.767     0.274    22.367     7.745
     3   8 O        0.860    -0.462    22.959     6.424
     4   7 N        2.734    -0.097    23.145     7.145
     5   6 C        3.791     0.037    19.970     6.364
     6   6 C        3.752    -0.119    22.841     6.815
     7   6 C        3.854    -0.027    21.023     6.521
     8   6 C        3.808    -0.060    21.639     6.622
     9   6 C        3.805    -0.055    21.559     6.610
    10   6 C        3.806    -0.056    21.581     6.613
    11   6 C        3.806    -0.055    21.551     6.609
    12   6 C        3.808    -0.057    21.590     6.614
    13   6 C        3.765    -0.026    21.077     6.544
    14   6 C        2.763     0.260    22.614     7.788
    15   8 O        0.859    -0.444    22.572     6.370
    16   7 N        2.732    -0.092    23.046     7.130
    17   6 C        3.694    -0.054    21.729     6.669
    18   6 C        3.701    -0.050    21.635     6.651
    19   1 H        0.925     0.065     2.141     2.288
    20   1 H        0.925     0.066     2.128     2.281
    21   1 H        0.925     0.052     2.300     2.372
    22   1 H        0.924     0.046     2.367     2.406
    23   1 H        0.925     0.040     2.443     2.444
    24   1 H        0.925     0.074     2.038     2.232
    25   1 H        0.925     0.042     2.425     2.435
    26   1 H        0.924     0.033     2.541     2.493
    27   1 H        0.924     0.034     2.534     2.490
    28   1 H        0.924     0.030     2.584     2.514
    29   1 H        0.924     0.031     2.568     2.506
    30   1 H        0.924     0.029     2.604     2.524
    31   1 H        0.924     0.028     2.617     2.530
    32   1 H        0.924     0.031     2.570     2.507
    33   1 H        0.924     0.031     2.567     2.506
    34   1 H        0.924     0.028     2.609     2.526
    35   1 H        0.924     0.032     2.559     2.502
    36   1 H        0.924     0.026     2.646     2.544
    37   1 H        0.924     0.094     1.842     2.123
    38   1 H        0.924     0.046     2.369     2.407
    39   1 H        0.924     0.058     2.223     2.332
    40   1 H        0.924     0.048     2.341     2.393
    41   1 H        0.925     0.067     2.121     2.277
    42   1 H        0.925     0.089     1.887     2.148
    43   1 H        0.924     0.050     2.319     2.382
    44   1 H        0.924     0.047     2.353     2.399

 Mol. C6AA /au·bohr⁶  :      15418.283526
 Mol. C8AA /au·bohr⁸  :     332964.522446
 Mol. α(0) /au        :        184.658600


Wiberg/Mayer (AO) data.
largest (>0.10) Wiberg bond orders for each atom

 ---------------------------------------------------------------------------
     #   Z sym  total        # sym  WBO       # sym  WBO       # sym  WBO
 ---------------------------------------------------------------------------
     1   6 C    3.994 --     2 C    0.990    19 H    0.982    21 H    0.968
                            20 H    0.961
     2   6 C    3.949 --     3 O    1.659     4 N    1.239     1 C    0.990
     3   8 O    1.979 --     2 C    1.659     4 N    0.187
     4   7 N    3.488 --     2 C    1.239    13 C    0.999     5 C    0.970
                             3 O    0.187
     5   6 C    3.967 --     6 C    1.000     7 C    0.971     4 N    0.970
                            22 H    0.964
     6   6 C    3.991 --     5 C    1.000    23 H    0.984    25 H    0.983
                            24 H    0.977
     7   6 C    3.994 --    12 C    0.998     8 C    0.996     5 C    0.971
                            26 H    0.958
     8   6 C    3.997 --     9 C    1.007     7 C    0.996    28 H    0.976
                            27 H    0.975
     9   6 C    3.997 --    10 C    1.009     8 C    1.007    29 H    0.978
                            30 H    0.977
    10   6 C    3.998 --     9 C    1.009    11 C    1.009    31 H    0.978
                            32 H    0.978
    11   6 C    3.998 --    10 C    1.009    12 C    1.008    33 H    0.977
                            34 H    0.977
    12   6 C    3.998 --    11 C    1.008     7 C    0.998    36 H    0.976
                            35 H    0.975
    13   6 C    3.977 --     4 N    0.999    14 C    0.953    38 H    0.953
                            37 H    0.937
    14   6 C    3.956 --    15 O    1.667    16 N    1.248    13 C    0.953
    15   8 O    2.000 --    14 C    1.667    16 N    0.196
    16   7 N    3.491 --    14 C    1.248    17 C    1.005    18 C    0.996
                            15 O    0.196
    17   6 C    3.973 --    16 N    1.005    41 H    0.982    40 H    0.974
                            39 H    0.973
    18   6 C    3.964 --    16 N    0.996    44 H    0.978    43 H    0.977
                            42 H    0.972
    19   1 H    0.996 --     1 C    0.982
    20   1 H    0.996 --     1 C    0.961
    21   1 H    0.997 --     1 C    0.968
    22   1 H    0.998 --     5 C    0.964
    23   1 H    0.998 --     6 C    0.984
    24   1 H    0.994 --     6 C    0.977
    25   1 H    0.998 --     6 C    0.983
    26   1 H    0.999 --     7 C    0.958
    27   1 H    0.999 --     8 C    0.975
    28   1 H    0.999 --     8 C    0.976
    29   1 H    0.999 --     9 C    0.978
    30   1 H    0.999 --     9 C    0.977
    31   1 H    0.999 --    10 C    0.978
    32   1 H    0.999 --    10 C    0.978
    33   1 H    0.999 --    11 C    0.977
    34   1 H    0.999 --    11 C    0.977
    35   1 H    0.999 --    12 C    0.975
    36   1 H    0.999 --    12 C    0.976
    37   1 H    0.991 --    13 C    0.937
    38   1 H    0.998 --    13 C    0.953
    39   1 H    0.997 --    17 C    0.973
    40   1 H    0.998 --    17 C    0.974
    41   1 H    0.995 --    17 C    0.982
    42   1 H    0.992 --    18 C    0.972
    43   1 H    0.997 --    18 C    0.977
    44   1 H    0.998 --    18 C    0.978
 ---------------------------------------------------------------------------

Topologies differ in total number of bonds
Writing topology from bond orders to xtbtopo.mol

molecular dipole:
                 x           y           z       tot (Debye)
 q only:       -0.403      -0.871       1.324
   full:       -0.550      -1.011       1.410       4.626
molecular quadrupole (traceless):
                xx          xy          yy          xz          yz          zz
 q only:       -4.569     -20.949       5.593      15.919     -10.206      -1.024
  q+dip:       -7.804     -24.210       6.454      16.334     -13.982       1.351
   full:       -7.174     -23.598       6.528      16.105     -13.228       0.646

           -------------------------------------------------
          |                Geometry Summary                 |
           -------------------------------------------------

      molecular mass/u    :      254.3689784
   center of mass at/Å    :        2.8967378      -0.0187015       2.0509949
  moments of inertia/u·Å² :        0.8123899E+03   0.2162530E+04   0.2336254E+04
rotational constants/cm⁻¹ :        0.2075067E-01   0.7795330E-02   0.7215667E-02

 * 41 selected distances

     #   Z          #   Z                                           value/Å
     2   6 C        3   8 O                                       1.2209048
     2   6 C        4   7 N                                       1.3597638
     4   7 N        5   6 C                                       1.4614130
     5   6 C        6   6 C                                       1.5305403
     7   6 C        8   6 C                                       1.5311718 (max)
Note: The following floating-point exceptions are signalling: IEEE_UNDERFLOW_FLAG IEEE_DENORMAL
normal termination of xtb
     8   6 C        9   6 C                                       1.5268412
     9   6 C       10   6 C                                       1.5247648
    10   6 C       11   6 C                                       1.5248423
     7   6 C       12   6 C                                       1.5310640
    11   6 C       12   6 C                                       1.5258882
     4   7 N       13   6 C                                       1.4484898
    14   6 C       15   8 O                                       1.2160288
    14   6 C       16   7 N                                       1.3530627
    16   7 N       17   6 C                                       1.4435715
    16   7 N       18   6 C                                       1.4459310
     1   6 C       19   1 H                                       1.0876904
     1   6 C       20   1 H                                       1.0871885
     1   6 C       21   1 H                                       1.0830993 (min)
     5   6 C       22   1 H                                       1.0952867
     6   6 C       23   1 H                                       1.0851403
     6   6 C       24   1 H                                       1.0865275
     6   6 C       25   1 H                                       1.0866087
     7   6 C       26   1 H                                       1.0938774
     8   6 C       27   1 H                                       1.0904819
     8   6 C       28   1 H                                       1.0929179
     9   6 C       29   1 H                                       1.0926277
     9   6 C       30   1 H                                       1.0920508
    10   6 C       31   1 H                                       1.0918094
    10   6 C       32   1 H                                       1.0926133
    11   6 C       33   1 H                                       1.0924466
    11   6 C       34   1 H                                       1.0919953
    12   6 C       35   1 H                                       1.0916056
    12   6 C       36   1 H                                       1.0933190
    13   6 C       37   1 H                                       1.0946427
    13   6 C       38   1 H                                       1.0932585
    17   6 C       39   1 H                                       1.0924405
    17   6 C       40   1 H                                       1.0937732
    17   6 C       41   1 H                                       1.0877349
    18   6 C       42   1 H                                       1.0882613
    18   6 C       43   1 H                                       1.0920992
    18   6 C       44   1 H                                       1.0922021

 * 4 distinct bonds (by element types)

   Z      Z             #   av. dist./Å        max./Å        min./Å
   1 H    6 C          26     1.0908346     1.0952867     1.0830993
   6 C    6 C           7     1.5278732     1.5311718     1.5247648
   6 C    7 N           6     1.4187053     1.4614130     1.3530627
   6 C    8 O           2     1.2184668     1.2209048     1.2160288


optimized geometry written to: xtbopt.xyz


           -------------------------------------------------
          | TOTAL ENERGY              -57.283637193764 Eh   |
          | GRADIENT NORM               0.000565169671 Eh/α |
          | HOMO-LUMO GAP               4.602479907967 eV   |
           -------------------------------------------------

------------------------------------------------------------------------
 * finished run on 2026/01/25 at 20:06:38.979     
------------------------------------------------------------------------
 total:
 * wall-time:     0 d,  0 h,  0 min,  1.238 sec
 *  cpu-time:     0 d,  0 h,  0 min,  1.220 sec
 * ratio c/w:     0.986 speedup
 SCF:
 * wall-time:     0 d,  0 h,  0 min,  0.036 sec
 *  cpu-time:     0 d,  0 h,  0 min,  0.036 sec
 * ratio c/w:     0.996 speedup
 ANC optimizer:
 * wall-time:     0 d,  0 h,  0 min,  1.185 sec
 *  cpu-time:     0 d,  0 h,  0 min,  1.176 sec
 * ratio c/w:     0.992 speedup

