44
 energy: -57.270248924580 gnorm: 0.065213335793 xtb: 6.7.1 (edcfbbe)
C            2.59170000000000        1.83530000000000       -0.40140000000000
C            3.35110000000000        0.61120000000000        0.03230000000000
O            4.06360000000000        0.04510000000000       -0.80300000000000
N            3.24980000000000        0.14910000000000        1.34100000000000
C            2.49130000000000        0.74790000000000        2.48020000000000
C            2.95280000000000        2.17540000000000        2.80050000000000
C            0.93580000000000        0.63400000000000        2.35340000000000
C            0.19720000000000        1.22900000000000        3.57420000000000
C           -1.32020000000000        1.16020000000000        3.40730000000000
C           -1.79570000000000       -0.26500000000000        3.16240000000000
C           -1.05500000000000       -0.91000000000000        1.99550000000000
C            0.46640000000000       -0.82070000000000        2.15040000000000
C            4.15410000000000       -0.97150000000000        1.67330000000000
C            5.51130000000000       -0.55850000000000        2.29390000000000
O            5.74600000000000        0.60290000000000        2.62510000000000
N            6.43500000000000       -1.58090000000000        2.53640000000000
C            6.21050000000000       -2.98820000000000        2.24980000000000
C            7.60650000000000       -1.27750000000000        3.34640000000000
H            2.65220000000000        1.91200000000000       -1.49330000000000
H            3.05050000000000        2.73290000000000        0.01420000000000
H            1.53530000000000        1.77530000000000       -0.15920000000000
H            2.76370000000000        0.14910000000000        3.36120000000000
H            2.52420000000000        2.90890000000000        2.11460000000000
H            4.03890000000000        2.27400000000000        2.75990000000000
H            2.65160000000000        2.46170000000000        3.81350000000000
H            0.60500000000000        1.20750000000000        1.48500000000000
H            0.46490000000000        2.28030000000000        3.71850000000000
H            0.48980000000000        0.69150000000000        4.48520000000000
H           -1.62160000000000        1.79660000000000        2.56550000000000
H           -1.80940000000000        1.56520000000000        4.30060000000000
H           -2.87350000000000       -0.26280000000000        2.96110000000000
H           -1.64280000000000       -0.86140000000000        4.06990000000000
H           -1.35240000000000       -0.41560000000000        1.06230000000000
H           -1.35710000000000       -1.95980000000000        1.90850000000000
H            0.93220000000000       -1.25390000000000        1.25870000000000
H            0.77730000000000       -1.43400000000000        3.00590000000000
H            4.35520000000000       -1.54570000000000        0.76620000000000
H            3.63430000000000       -1.63340000000000        2.37640000000000
H            5.44620000000000       -3.14460000000000        1.48920000000000
H            5.90140000000000       -3.48550000000000        3.17370000000000
H            7.14320000000000       -3.43210000000000        1.88880000000000
H            7.83210000000000       -0.20860000000000        3.36440000000000
H            8.47440000000000       -1.81270000000000        2.94950000000000
H            7.41020000000000       -1.61340000000000        4.36950000000000
44
 energy: -57.277884279771 gnorm: 0.020591350433 xtb: 6.7.1 (edcfbbe)
C            2.59048443231244        1.82327574473604       -0.38253849709728
C            3.36264649965565        0.60764513015123        0.06923061825099
O            4.05900092962696        0.01138477525146       -0.73918679525348
N            3.25337297011936        0.15467975906535        1.36192872006535
C            2.49150065537134        0.74621107907862        2.48415180297179
C            2.94799144603694        2.17405426419873        2.79172094388415
C            0.94276290175812        0.63805126154683        2.33896147327685
C            0.21601068660041        1.22311716206002        3.56398926773300
C           -1.30201546874321        1.15541295902451        3.39556121228831
C           -1.78094872501131       -0.27126265623640        3.16305902941880
C           -1.04093016271391       -0.90259236306049        1.98850815168391
C            0.47875234014650       -0.81365641087495        2.15043245847098
C            4.13766572222586       -0.96725873617892        1.68429067682242
C            5.48208772346796       -0.55523488195399        2.31244913454138
O            5.72749995413661        0.59373464656477        2.62570419260303
N            6.39661517201138       -1.55861623384437        2.52978362760256
C            6.19288212232044       -2.96553914725442        2.25689904033189
C            7.57483643610662       -1.27529194497038        3.33073229389915
H            2.66789780550812        1.88144377337361       -1.47079717989128
H            3.04110926146049        2.72225252308795        0.02940139169086
H            1.53784324443624        1.77859786376233       -0.12191425421069
H            2.76983984196941        0.13366529352147        3.35051835656345
H            2.51531806230461        2.90451328028900        2.11109006055492
H            4.03403376665964        2.23400940312033        2.73378770809283
H            2.65900795925351        2.44440307992288        3.80692128242044
H            0.61619156302238        1.21266176732874        1.46877493284173
H            0.49051117131311        2.26992068388797        3.70521981084207
H            0.50545718506055        0.67706097017044        4.46728356662902
H           -1.60367929137433        1.78488890987762        2.55238144633970
H           -1.78564332696831        1.56059020763099        4.28950222595230
H           -2.85701311582152       -0.27168556860959        2.96395165578348
H           -1.61623947841257       -0.86447148972410        4.06755414429928
H           -1.33776775538829       -0.40161621761102        1.06200451759514
H           -1.33691379847984       -1.95178081922128        1.90003677655631
H            0.95332433480597       -1.24040086896804        1.26295657789484
H            0.78395170028040       -1.41452259330387        3.01356212803106
H            4.33245143725786       -1.50220290812485        0.74962167020312
H            3.62240366411031       -1.63694838799072        2.38070433311251
H            5.43827604468678       -3.12257483768158        1.49314852419149
H            5.89411460133607       -3.49260978853585        3.16928142139622
H            7.12926774688232       -3.40051333247252        1.89891973135967
H            7.77536597134138       -0.20597225469425        3.33320507158610
H            8.44199553026828       -1.79888784064509        2.92212974131302
H            7.41668023905927       -1.60863525569416        4.36257700735849
44
 energy: -57.280121942153 gnorm: 0.010683689995 xtb: 6.7.1 (edcfbbe)
C            2.59696163253533        1.81313562866581       -0.36413394214390
C            3.35401130520366        0.58637918484847        0.09044185898356
O            4.05826435723522       -0.01334070936579       -0.70204689341299
N            3.24720297837328        0.14855856132630        1.37767770418689
C            2.49339401950010        0.74561148774546        2.48824989308531
C            2.95605909828875        2.17169493288589        2.78977427314642
C            0.95261151888015        0.63604516779508        2.33728081676596
C            0.23259879901399        1.22119818090002        3.55857289801830
C           -1.28463526092556        1.15261878640698        3.38844075982324
C           -1.75470793713948       -0.27884133876935        3.16041277113460
C           -1.02006638103668       -0.90237670372409        1.97728498658625
C            0.49744588863375       -0.81287638050787        2.14560783190212
C            4.11325679486307       -0.97506727710810        1.69971953323206
C            5.44906829227501       -0.55087370656237        2.32459682910974
O            5.69015389252203        0.59747732184692        2.63031858530343
N            6.35356879066869       -1.54201638516022        2.53127538026626
C            6.16203660037069       -2.94581466260468        2.26054953601788
C            7.54074955159482       -1.25947154044720        3.31262988955799
H            2.68618568978097        1.86050803019269       -1.44823731260399
H            3.04912073613977        2.70814823616457        0.05234980459172
H            1.54674347595218        1.78364453329862       -0.09739934000385
H            2.76765743388881        0.13537481819898        3.35480527131628
H            2.51105006692359        2.89657585570438        2.11633684870369
H            4.04028758392910        2.21097039327612        2.70546690735876
H            2.68721746627078        2.43837712207079        3.80797981909641
H            0.62920747086122        1.21072570880337        1.46683855677304
H            0.51185653938125        2.26464656879781        3.70043288037606
H            0.52251502013287        0.66574879761066        4.45323356654553
H           -1.58265823823510        1.77213816782170        2.53911987598955
H           -1.76659635498030        1.56162058588787        4.27997244607643
H           -2.83058319234350       -0.28603853662752        2.96936331341835
H           -1.57452732877637       -0.87015461257770        4.06116839785720
H           -1.31453577875252       -0.38796288338775        1.05961285744124
H           -1.31271185465198       -1.95030355794024        1.87844171998083
H            0.98158669346799       -1.23861531072752        1.26406968393577
H            0.79546428747378       -1.40215828251403        3.01668576816122
H            4.31029092473335       -1.48299042936205        0.74940560087523
H            3.59996262891429       -1.65370580827540        2.38675279474058
H            5.41292535034050       -3.10440923442564        1.49305008010358
H            5.86961530317229       -3.48960152979156        3.16648040669194
H            7.10511562919255       -3.36882149151311        1.90646464686433
H            7.71705432379587       -0.18675603685406        3.30842675453433
H            8.40343192758868       -1.77073618855423        2.88236589249766
H            7.41435025494303       -1.59896546344793        4.34766004711492
44
 energy: -57.280999262908 gnorm: 0.007612590243 xtb: 6.7.1 (edcfbbe)
C            2.60489208277086        1.80986808829886       -0.35466829457417
C            3.35416732336155        0.57933380238675        0.10094818182095
O            4.04346011754290       -0.03491713909018       -0.69629673808358
N            3.23920688307516        0.14457120809028        1.38575247522009
C            2.49638226457141        0.74792550897857        2.49340144850938
C            2.96678227465962        2.17367558641787        2.78908256968350
C            0.96105488020936        0.63940811874415        2.33683159381077
C            0.24380934867727        1.21867794019584        3.55884340001844
C           -1.27182951120341        1.14641792883776        3.38377138297533
C           -1.73142900595774       -0.28937918044023        3.15794535958041
C           -0.99897302312399       -0.90214425197021        1.96728247746918
C            0.51653614492990       -0.81127713581756        2.14350540259719
C            4.08704544599347       -0.98703841259356        1.71106978513723
C            5.41536902955818       -0.55425205199071        2.34021430224769
O            5.65007849378516        0.60053637624279        2.63455165698560
N            6.31993361019255       -1.53822911263491        2.54234501499353
C            6.13390393274466       -2.93916042029751        2.26541565557562
C            7.51914581532487       -1.24127010601764        3.29744186428541
H            2.69236821817897        1.85062367941600       -1.43736837673329
H            3.06769634437100        2.69960309833708        0.06129089287397
H            1.55647948051108        1.79099515979942       -0.08063255897415
H            2.76646015528378        0.14062798657216        3.36363394570771
H            2.50714252038185        2.89926567137515        2.12692512544224
H            4.04842027597540        2.20694328852814        2.67969674213902
H            2.72186289748147        2.43732324458270        3.81379336584928
H            0.63789043596454        1.21368471469381        1.46601465495523
H            0.52544781832290        2.26055303556445        3.70308967485630
H            0.53457758350610        0.65856436289610        4.44996670670991
H           -1.56650650594829        1.75950027816184        2.52911924933461
H           -1.75803448558737        1.55712294471043        4.27124138683055
H           -2.80842949067626       -0.30683102579373        2.97646559628801
H           -1.53429503963223       -0.88028427906303        4.05525072948242
H           -1.29075454112182       -0.37592540561852        1.05572267832269
H           -1.29065004760820       -1.94867589594846        1.85619561055855
H            1.00894508352283       -1.23612543393944        1.26640641889516
H            0.80981344752036       -1.39730305134842        3.01804963823806
H            4.29163244370316       -1.48738399441467        0.75920362595327
H            3.56849702638011       -1.66756665385489        2.39093783256355
H            5.38672749692387       -3.09785547673957        1.49552612167345
H            5.84148440331265       -3.48785107973128        3.16805999574813
H            7.08053843701530       -3.35423994585666        1.91190905941053
H            7.67168215140488       -0.16409645356536        3.29362659854056
H            8.37984534226972       -1.73521771649990        2.84319272328073
H            7.41962244143220       -1.58889779960358        4.33274502380108
44
 energy: -57.281620605299 gnorm: 0.006116768483 xtb: 6.7.1 (edcfbbe)
C            2.61952352564157        1.81238332186043       -0.34958705080066
C            3.34203898148677        0.56556910094996        0.10240720582562
O            4.01965131273491       -0.06033486442936       -0.69887643346224
N            3.22517173547458        0.13901137589649        1.38890434988985
C            2.50097426531355        0.75676302184288        2.49757423927824
C            2.97713870089671        2.18368484462465        2.78461667027298
C            0.97006216419021        0.64441405166063        2.34352520270046
C            0.25093487073916        1.21644842326577        3.56563224281236
C           -1.26247755305067        1.13609743233195        3.38297711143182
C           -1.70693917081345       -0.30482154348614        3.15648625818150
C           -0.97581976630759       -0.90305425634623        1.95747129634675
C            0.53720466645142       -0.80886719093506        2.14255785885155
C            4.05818300457657       -0.99985822981523        1.71836826409573
C            5.38370997451222       -0.56324740406515        2.34760526841496
O            5.60849274469715        0.59675511430533        2.63687699073138
N            6.28913637391547       -1.54196195397206        2.55749039666786
C            6.10538753349633       -2.94139297015333        2.27614641194156
C            7.50167161954323       -1.22203963950395        3.28153002486855
H            2.70347608073240        1.85207544470735       -1.43188308782290
H            3.10235166907413        2.69137848515883        0.06822419081687
H            1.57180095418187        1.81245100076416       -0.07248856579443
H            2.77190522218908        0.15551212722387        3.37259626566576
H            2.49534125521701        2.91197198935758        2.13983320866444
H            4.05470900118394        2.21920184167615        2.64387011118343
H            2.76427078726174        2.44200092696174        3.81909773469334
H            0.64331340333757        1.21812840430026        1.47397222841295
H            0.53298622943183        2.25780910121857        3.71430586136471
H            0.54312627218761        0.65330194795195        4.45459751840812
H           -1.55365214355615        1.74328645340680        2.52273045761792
H           -1.75844392221631        1.54673228770763        4.26454448158463
H           -2.78558259826067       -0.33741221605108        2.98734601066381
H           -1.48890773801213       -0.89620761234767        4.04909730665493
H           -1.26415285567025       -0.36305348869031        1.05252719640713
H           -1.26672239221391       -1.94791492566818        1.82964430328180
H            1.03910357099262       -1.22955302158351        1.26868450768016
H            0.82759524403544       -1.39525012416590        3.01795736615512
H            4.26710284799694       -1.50112077631005        0.76928704016028
H            3.53105046523773       -1.67807394272604        2.39336361041598
H            5.36160509968778       -3.09925143701583        1.50196711712793
H            5.80610754359406       -3.48999874071255        3.17559522880548
H            7.05378501855430       -3.35327350216020        1.92565885333825
H            7.62430599380884       -0.13996653887182        3.28048090457648
H            8.36196832967614       -1.69024645687746        2.79869852919707
H            7.43551167804973       -1.57877586128573        4.31608531269310
44
 energy: -57.281982793224 gnorm: 0.006552576865 xtb: 6.7.1 (edcfbbe)
C            2.63376111517986        1.81983352979402       -0.34797898007362
C            3.33501478539886        0.56004544084954        0.09949790545329
O            3.99245828789192       -0.08162137631369       -0.70813740751759
N            3.21794729840335        0.13852724508867        1.38786808771460
C            2.50601020799704        0.76831065608830        2.49818996655454
C            2.98059485696390        2.19822352010324        2.77459464090564
C            0.97616712185238        0.65057341698415        2.35028602773261
C            0.25289422378573        1.21402693023614        3.57440618486362
C           -1.25898630165049        1.12435926480735        3.38666439333036
C           -1.68954412380592       -0.32046471632268        3.15752093561740
C           -0.95882283006935       -0.90436930266035        1.95165019336793
C            0.55223884734442       -0.80535027337372        2.14172415750876
C            4.03805027404051       -1.00911424397054        1.72058347114052
C            5.36297315346503       -0.57428106090081        2.35187004624302
O            5.58497808337336        0.58865622611702        2.63515330187075
N            6.26953179281272       -1.55073135565434        2.57187378725520
C            6.08574387152904       -2.95069917301741        2.29107596163703
C            7.49347760466046       -1.21141560923195        3.26820612105810
H            2.71046531531480        1.86050402573058       -1.43129502586073
H            3.13765838075683        2.68798571115878        0.06878728909413
H            1.58706274199220        1.83922996457913       -0.06533507358324
H            2.78335420656142        0.17489005707110        3.37710921135231
H            2.47638850818260        2.92726327229955        2.14640144116738
H            4.05355150952372        2.24449821534825        2.60757794153376
H            2.79386136534793        2.45115205749493        3.81607006248457
H            0.64540379209567        1.22500096762559        1.48239752954468
H            0.53176506813970        2.25605193572263        3.72865100174783
H            0.54661445774542        0.64965117257102        4.46261690559535
H           -1.54971888734021        1.72861144005739        2.52388138611792
H           -1.76440085888745        1.53200632107674        4.26429920541706
H           -2.76926991573637       -0.36699083505987        2.99887614840684
H           -1.45466676168375       -0.91292185723527        4.04544692630348
H           -1.24626583507646       -0.35421474749701        1.05226119426134
H           -1.24753003205155       -1.94816327233449        1.80989462228275
H            1.06003685462973       -1.21965968993794        1.26819306178514
H            0.84299667852783       -1.39482281305341        3.01536181174739
H            4.24552094967975       -1.51737989004198        0.77520753703708
H            3.50124604620478       -1.68103396035581        2.39473119173662
H            5.34560682037652       -3.10736713453649        1.51243924432751
H            5.77694076421568       -3.49545343565135        3.18905181835032
H            7.03439198652674       -3.36565611518133        1.94648407114562
H            7.59075144401732       -0.12655102509004        3.27335940859111
H            8.35252444514604       -1.65472482534439        2.75936550704915
H            7.45922268661740       -1.57711465803907        4.30061678770374
44
 energy: -57.282262694788 gnorm: 0.005425936159 xtb: 6.7.1 (edcfbbe)
C            2.64929728864732        1.83099313918734       -0.34638954956707
C            3.32552132556346        0.55516962713591        0.09413708304863
O            3.96338313652467       -0.10049226721967       -0.71750411893187
N            3.21406089024665        0.14121569134429        1.38582822008892
C            2.51080017810834        0.78209756257003        2.49702186853071
C            2.97841346583810        2.21699880341288        2.75854210668448
C            0.98031351717668        0.65659630827786        2.35601752289938
C            0.25346409425345        1.21046611267638        3.58372136498741
C           -1.25762055032999        1.11017707584273        3.39369232755694
C           -1.67597094016629       -0.33750089746291        3.16074527610131
C           -0.94554211152964       -0.90657320121225        1.94839801028248
C            0.56417105217687       -0.80136471340521        2.13979455373915
C            4.02325452196185       -1.01431596555095        1.72166915551790
C            5.35042822181839       -0.58368791640596        2.35088020976942
O            5.57398846608630        0.58034186783882        2.62823036629228
N            6.25567908539657       -1.56050170948900        2.58369097290477
C            6.06945942540542       -2.96246320741255        2.30995399720368
C            7.48936887703149       -1.20812464288928        3.25514037155071
H            2.71725245509005        1.87376343163834       -1.43103953735831
H            3.17655777673846        2.68664214569450        0.06815611321788
H            1.60473319916217        1.87329981580387       -0.05608481721595
H            2.79823527822589        0.19828344341693        3.37922104840292
H            2.45127664896970        2.94243072036070        2.14466111440706
H            4.04637134065852        2.27771571056790        2.56645972777125
H            2.81489659041196        2.46741265939654        3.80419771036491
H            0.64513665634163        1.23321400641274        1.49065404928017
H            0.52622028641317        2.25387595039631        3.74381689235079
H            0.54994165472898        0.64499719633527        4.47076694547890
H           -1.55148055860564        1.71384560232536        2.53136884954640
H           -1.76978988964908        1.51219120003287        4.27016369073232
H           -2.75606841069511       -0.39614189115858        3.01059281027281
H           -1.42747223225832       -0.93147306040301        4.04380243726389
H           -1.23523432801391       -0.34874862891309        1.05445627730083
H           -1.22986677122926       -1.94990752674020        1.79542902604515
H            1.07494710329345       -1.20728560038304        1.26426244735394
H            0.85819136926007       -1.39460210821719        3.01020776739115
H            4.22399115118715       -1.53195428420022        0.77940070009425
H            3.47860467018040       -1.67768140323248        2.39876160665514
H            5.33492776031639       -3.11942970647740        1.52554167137101
H            5.74861035567124       -3.50000987321359        3.20805732031580
H            7.01852742172641       -3.38514810994493        1.97648194513574
H            7.56523704245733       -0.12236289171069        3.27144206782721
H            8.34453419939883       -1.62724921255667        2.72015490632384
H            7.48724928600859       -1.58540925246858        4.28299749101377
44
 energy: -57.282489920668 gnorm: 0.004257979319 xtb: 6.7.1 (edcfbbe)
C            2.66449129995432        1.84328696438357       -0.34519921287030
C            3.31973890138528        0.55453718818456        0.08921606417360
O            3.93562499771434       -0.11654988797256       -0.72584171830252
N            3.21502842671561        0.14789676489187        1.38410578538467
C            2.51395189158205        0.79616114622732        2.49361901470147
C            2.97166140030964        2.23652041961200        2.73994169238847
C            0.98221058453002        0.66141532914612        2.35881511098965
C            0.25380252652048        1.20548635685276        3.59105344589968
C           -1.25744660647412        1.09535679750253        3.40414991352997
C           -1.66636716038380       -0.35395874458955        3.16581178543278
C           -0.93698957596878       -0.91011270922359        1.94752343590010
C            0.57238749160853       -0.79750581381644        2.13542733429583
C            4.01458768030470       -1.01446323188818        1.72322987985600
C            5.34497922422517       -0.58851889190935        2.34829528289169
O            5.57486129250273        0.57619385702396        2.61614985565401
N            6.24672413384248       -1.56794085953925        2.59163083248238
C            6.05465907345236       -2.97230456084467        2.33029175273378
C            7.48909319406814       -1.21228377051401        3.24283473274315
H            2.72158529227627        1.88611521478213       -1.43111022586463
H            3.21417619654520        2.68722123816086        0.06376976225253
H            1.62404528105993        1.90820524738498       -0.04345959072575
H            2.81079205003351        0.22195803117928        3.37850253987665
H            2.42483067181701        2.95443937879909        2.13555213482550
H            4.03484036131340        2.31023848890156        2.52721017276266
H            2.82628971259281        2.48851759168092        3.78700109444630
H            0.64283539804763        1.24118677119354        1.49666884766249
H            0.51933295721438        2.25033479493860        3.75603701430719
H            0.55534919828854        0.63846143114372        4.47552848759320
H           -1.55788416980721        1.70087993611341        2.54535489780072
H           -1.77103554295592        1.48982939665843        4.28333941216634
H           -2.74629325072226       -0.42063549482062        3.02100530135867
H           -1.40901744753440       -0.95032805238175        4.04424411387205
H           -1.23240182313224       -0.34754720801750        1.05863018786307
H           -1.21522003371480       -1.95382946872913        1.78738185292522
H            1.08250919994911       -1.19485262227470        1.25588241895934
H            0.87217080835470       -1.39426786468674        3.00160609405744
H            4.20659168503674       -1.54145106661683        0.78346272998581
H            3.46532581954329       -1.66870894772034        2.40594423957663
H            5.32692644704717       -3.13162118347770        1.53981139812888
H            5.72108681148758       -3.49933332283832        3.23046080782600
H            7.00424772004905       -3.40585852353676        2.01166319684770
H            7.55018494660967       -0.12686660363566        3.27630781700291
H            8.33788000929148       -1.60998052481659        2.68223446671995
H            7.51585292541841       -1.60602299091095        4.26341583989176
44
 energy: -57.282699623061 gnorm: 0.003549508152 xtb: 6.7.1 (edcfbbe)
C            2.68038776428860        1.85569531203832       -0.34467274636861
C            3.31405413367113        0.55456975092646        0.08501611545394
O            3.90963093016676       -0.13065157458279       -0.73129503998564
N            3.21785192250662        0.15714816902620        1.38359932249374
C            2.51489056515450        0.81049306503914        2.48904600399268
C            2.96138470858911        2.25667163347191        2.71973925242335
C            0.98223531308582        0.66584071207354        2.35744789237529
C            0.25580986465569        1.19867154388556        3.59615881444333
C           -1.25637416418971        1.07893486486446        3.41806995182372
C           -1.65813759552488       -0.37112324184505        3.17285383494322
C           -0.93090513944978       -0.91490166671354        1.94800859733735
C            0.57912083302598       -0.79361462382271        2.12777971421643
C            4.00978213923208       -1.00949295258027        1.72666840681837
C            5.34499554589687       -0.58773906224409        2.34354526261425
O            5.58488016104305        0.57757975449184        2.59839595240785
N            6.23989052631543       -1.57206483414673        2.59584679028926
C            6.03638910351985       -2.97864524789453        2.35266687704322
C            7.49127930873579       -1.22198459287604        3.22991393644700
H            2.72495323134098        1.89602845492893       -1.43145602750130
H            3.25363425192668        2.68783164027639        0.05555005601087
H            1.64613778523958        1.94455342370190       -0.02855771446353
H            2.81893219780071        0.24631506223616        3.37718223304723
H            2.39709156156959        2.96454925618934        2.12113952444085
H            4.01990661372468        2.34041236628151        2.48918172188739