44
 energy: -57.283710897537 gnorm: 0.000436209028 xtb: 6.7.1 (edcfbbe)
C            2.38864607022457       -0.37877389174837       -1.74352421313651
C            3.19185766484276        0.08894488827797       -0.55474297207483
O            3.82152450994634       -0.71733876045047        0.11173910429905
N            3.20555051646818        1.41121440902662       -0.23830787115174
C            2.49326661870903        2.51431043092918       -0.87995448945575
C            2.80882540791857        2.64215140206463       -2.37212957003072
C            0.97591131941313        2.49746308145797       -0.58330969585838
C            0.35046745145941        3.85564369895160       -0.91299663903717
C           -1.15134358639344        3.84636443237252       -0.63773920650670
C           -1.43445198735152        3.48443467584707        0.81620393840871
C           -0.81059685871335        2.13443183387014        1.15325192116856
C            0.69065784331082        2.15582127092570        0.88143826104061
C            4.09790417040888        1.78062330265973        0.84134254979084
C            5.40481404614478        2.36420861908936        0.30718241795990
O            5.58815269655055        2.57306950674585       -0.87671246708036
N            6.33489481445970        2.64622368213791        1.24832645906220
C            6.16468050014494        2.35349186244060        2.65184487271828
C            7.61973815994463        3.16666927704744        0.83635617980582
H            2.29658281750068       -1.46005544263291       -1.67119390653774
H            2.93119007887412       -0.14167182644381       -2.65521852736939
H            1.40112049604163        0.06432254876283       -1.78422131222541
H            2.89977023054461        3.41208118948355       -0.40233060586487
H            2.19045845165946        1.99327085955077       -2.98380279684574
H            3.85775612165572        2.40523555318888       -2.52789445214598
H            2.64781771683605        3.66781687886017       -2.69288195033144
H            0.48598382576555        1.74668994833420       -1.21023407574178
H            0.52096733259791        4.10160953328071       -1.96165580279725
H            0.82482123675537        4.62973631776117       -0.30461806019047
H           -1.63467278867225        3.11719974430512       -1.29217689069027
H           -1.57131460541915        4.82826181784859       -0.86582349688426
H           -2.51201284341549        3.45199350516012        0.98938055897929
H           -1.01354421242963        4.25199905053039        1.46997156389826
H           -1.27861375394385        1.35609292185181        0.54610344114145
H           -0.99064443577569        1.89114071968939        2.20250459385485
H            1.11996073914471        1.18312458581471        1.12860738245661
H            1.15768613302702        2.90663524280835        1.52435055605469
H            4.31725022519892        0.86434811168359        1.39779094891156
H            3.61056126426314        2.49780513484474        1.50739888816381
H            6.05063562776318        1.28061552297544        2.82595646126250
H            5.29218155222821        2.86676988978492        3.06180534860451
H            7.04638731241813        2.69735196790836        3.18789136238010
H            7.59472369337495        3.29849214303414       -0.24349902462719
H            8.41841453715685        2.46857362952482        1.09514397119087
H            7.81166388935725        4.12914673044485        1.31519724543563
