
                                 *****************
                                 * O   R   C   A *
                                 *****************

                                            #,                                       
                                            ###                                      
                                            ####                                     
                                            #####                                    
                                            ######                                   
                                           ########,                                 
                                     ,,################,,,,,                         
                               ,,#################################,,                 
                          ,,##########################################,,             
                       ,#########################################, ''#####,          
                    ,#############################################,,   '####,        
                  ,##################################################,,,,####,       
                ,###########''''           ''''###############################       
              ,#####''   ,,,,##########,,,,          '''####'''          '####       
            ,##' ,,,,###########################,,,                        '##       
           ' ,,###''''                  '''############,,,                           
         ,,##''                                '''############,,,,        ,,,,,,###''
      ,#''                                            '''#######################'''  
     '                                                          ''''####''''         
             ,#######,   #######,   ,#######,      ##                                
            ,#'     '#,  ##    ##  ,#'     '#,    #''#        ######   ,####,        
            ##       ##  ##   ,#'  ##            #'  '#       #        #'  '#        
            ##       ##  #######   ##           ,######,      #####,   #    #        
            '#,     ,#'  ##    ##  '#,     ,#' ,#      #,         ##   #,  ,#        
             '#######'   ##     ##  '#######'  #'      '#     #####' # '####'        



                  #######################################################
                  #                        -***-                        #
                  #          Department of theory and spectroscopy      #
                  #    Directorship and core code : Frank Neese         #
                  #        Max Planck Institute fuer Kohlenforschung    #
                  #                Kaiser Wilhelm Platz 1               #
                  #                 D-45470 Muelheim/Ruhr               #
                  #                      Germany                        #
                  #                                                     #
                  #                  All rights reserved                #
                  #                        -***-                        #
                  #######################################################


                         Program Version 5.0.3 -  RELEASE  -


 With contributions from (in alphabetic order):
   Daniel Aravena         : Magnetic Suceptibility
   Michael Atanasov       : Ab Initio Ligand Field Theory (pilot matlab implementation)
   Alexander A. Auer      : GIAO ZORA, VPT2 properties, NMR spectrum
   Ute Becker             : Parallelization
   Giovanni Bistoni       : ED, misc. LED, open-shell LED, HFLD
   Martin Brehm           : Molecular dynamics
   Dmytro Bykov           : SCF Hessian
   Vijay G. Chilkuri      : MRCI spin determinant printing, contributions to CSF-ICE
   Dipayan Datta          : RHF DLPNO-CCSD density
   Achintya Kumar Dutta   : EOM-CC, STEOM-CC
   Dmitry Ganyushin       : Spin-Orbit,Spin-Spin,Magnetic field MRCI
   Miquel Garcia          : C-PCM and meta-GGA Hessian, CC/C-PCM, Gaussian charge scheme
   Yang Guo               : DLPNO-NEVPT2, F12-NEVPT2, CIM, IAO-localization
   Andreas Hansen         : Spin unrestricted coupled pair/coupled cluster methods
   Benjamin Helmich-Paris : MC-RPA, TRAH-SCF, COSX integrals
   Lee Huntington         : MR-EOM, pCC
   Robert Izsak           : Overlap fitted RIJCOSX, COSX-SCS-MP3, EOM
   Marcus Kettner         : VPT2
   Christian Kollmar      : KDIIS, OOCD, Brueckner-CCSD(T), CCSD density, CASPT2, CASPT2-K
   Simone Kossmann        : Meta GGA functionals, TD-DFT gradient, OOMP2, MP2 Hessian
   Martin Krupicka        : Initial AUTO-CI
   Lucas Lang             : DCDCAS
   Marvin Lechner         : AUTO-CI (C++ implementation), FIC-MRCC
   Dagmar Lenk            : GEPOL surface, SMD
   Dimitrios Liakos       : Extrapolation schemes; Compound Job, initial MDCI parallelization
   Dimitrios Manganas     : Further ROCIS development; embedding schemes
   Dimitrios Pantazis     : SARC Basis sets
   Anastasios Papadopoulos: AUTO-CI, single reference methods and gradients
   Taras Petrenko         : DFT Hessian,TD-DFT gradient, ASA, ECA, R-Raman, ABS, FL, XAS/XES, NRVS
   Peter Pinski           : DLPNO-MP2, DLPNO-MP2 Gradient
   Christoph Reimann      : Effective Core Potentials
   Marius Retegan         : Local ZFS, SOC
   Christoph Riplinger    : Optimizer, TS searches, QM/MM, DLPNO-CCSD(T), (RO)-DLPNO pert. Triples
   Tobias Risthaus        : Range-separated hybrids, TD-DFT gradient, RPA, STAB
   Michael Roemelt        : Original ROCIS implementation
   Masaaki Saitow         : Open-shell DLPNO-CCSD energy and density
   Barbara Sandhoefer     : DKH picture change effects
   Avijit Sen             : IP-ROCIS
   Kantharuban Sivalingam : CASSCF convergence, NEVPT2, FIC-MRCI
   Bernardo de Souza      : ESD, SOC TD-DFT
   Georgi Stoychev        : AutoAux, RI-MP2 NMR, DLPNO-MP2 response
   Willem Van den Heuvel  : Paramagnetic NMR
   Boris Wezisla          : Elementary symmetry handling
   Frank Wennmohs         : Technical directorship


 We gratefully acknowledge several colleagues who have allowed us to
 interface, adapt or use parts of their codes:
   Stefan Grimme, W. Hujo, H. Kruse, P. Pracht,  : VdW corrections, initial TS optimization,
                  C. Bannwarth, S. Ehlert          DFT functionals, gCP, sTDA/sTD-DF
   Ed Valeev, F. Pavosevic, A. Kumar             : LibInt (2-el integral package), F12 methods
   Garnet Chan, S. Sharma, J. Yang, R. Olivares  : DMRG
   Ulf Ekstrom                                   : XCFun DFT Library
   Mihaly Kallay                                 : mrcc  (arbitrary order and MRCC methods)
   Jiri Pittner, Ondrej Demel                    : Mk-CCSD
   Frank Weinhold                                : gennbo (NPA and NBO analysis)
   Christopher J. Cramer and Donald G. Truhlar   : smd solvation model
   Lars Goerigk                                  : TD-DFT with DH, B97 family of functionals
   V. Asgeirsson, H. Jonsson                     : NEB implementation
   FAccTs GmbH                                   : IRC, NEB, NEB-TS, DLPNO-Multilevel, CI-OPT
                                                   MM, QMMM, 2- and 3-layer-ONIOM, Crystal-QMMM,
                                                   LR-CPCM, SF, NACMEs, symmetry and pop. for TD-DFT,
                                                   nearIR, NL-DFT gradient (VV10), updates on ESD,
                                                   ML-optimized integration grids
   S Lehtola, MJT Oliveira, MAL Marques          : LibXC Library
   Liviu Ungur et al                             : ANISO software


 Your calculation uses the libint2 library for the computation of 2-el integrals
 For citations please refer to: http://libint.valeyev.net

 Your ORCA version has been built with support for libXC version: 5.1.0
 For citations please refer to: https://tddft.org/programs/libxc/

 This ORCA versions uses:
   CBLAS   interface :  Fast vector & matrix operations
   LAPACKE interface :  Fast linear algebra routines
   SCALAPACK package :  Parallel linear algebra routines
   Shared memory     :  Shared parallel matrices




***************************************
The coordinates will be read from file: R20/R20.xyz
***************************************


Your calculation utilizes the semiempirical GFN2-xTB method
Please cite in your paper:
C. Bannwarth, Ehlert S., S. Grimme,  J. Chem. Theory Comput., 15, (2019), 1652.
   

================================================================================

================================================================================
                                        WARNINGS
                       Please study these warnings very carefully!
================================================================================


WARNING: Geometry Optimization
  ===> : Switching off AutoStart
         For restart on a previous wavefunction, please use MOREAD

WARNING: Found dipole moment calculation with XTB calculation
  ===> : Switching off dipole moment calculation


WARNING: otool_xtb not available.
         Trying xtb instead   ... done.
  ===> : Now using xtb as program name.


WARNING: TRAH-SCF for XTB is not implemented!
  ===> : Turning TRAH off!

================================================================================
                                       INPUT FILE
================================================================================
NAME = R20/xtb.orca
|  1> !xtb opt 
|  2> 
|  3> * xyzfile 0 1 R20/R20.xyz 
|  4> 
|  5>                          ****END OF INPUT****
================================================================================

                       *****************************
                       * Geometry Optimization Run *
                       *****************************

Geometry optimization settings:
Update method            Update   .... BFGS
Choice of coordinates    CoordSys .... Z-matrix Internals
Initial Hessian          InHess   .... Almoef's Model

Convergence Tolerances:
Energy Change            TolE     ....  5.0000e-06 Eh
Max. Gradient            TolMAXG  ....  3.0000e-04 Eh/bohr
RMS Gradient             TolRMSG  ....  1.0000e-04 Eh/bohr
Max. Displacement        TolMAXD  ....  4.0000e-03 bohr
RMS Displacement         TolRMSD  ....  2.0000e-03 bohr
Strict Convergence                ....  False
------------------------------------------------------------------------------
                        ORCA OPTIMIZATION COORDINATE SETUP
------------------------------------------------------------------------------

The optimization will be done in new redundant internal coordinates
Making redundant internal coordinates   ...  (new redundants) done
Evaluating the initial hessian          ...  (Almloef) done
Evaluating the coordinates              ...  done
Calculating the B-matrix                .... done
Calculating the G-matrix                .... done
Diagonalizing the G-matrix              .... done
Small eigenvalue found = 3.904e-03
Small eigenvalue found = 7.733e-03
Small eigenvalue found = 9.733e-03
Small eigenvalue found = 1.379e-02
Small eigenvalue found = 2.547e-02
Small eigenvalue found = 2.940e-02
The first mode is                       ....   70
The number of degrees of freedom        ....   99

    -----------------------------------------------------------------
                    Redundant Internal Coordinates


    -----------------------------------------------------------------
         Definition                    Initial Value    Approx d2E/dq
    -----------------------------------------------------------------
      1. B(C   1,C   0)                  1.5116         0.399761   
      2. B(O   2,C   1)                  1.2298         1.008134   
      3. B(N   3,C   1)                  1.3833         0.573477   
      4. B(C   4,N   3)                  1.4652         0.424528   
      5. B(C   5,C   4)                  1.5212         0.385885   
      6. B(C   6,C   5)                  1.4040         0.593564   
      7. B(C   7,C   6)                  1.3982         0.606348   
      8. B(C   8,C   7)                  1.3931         0.617711   
      9. B(C   9,C   8)                  1.3921         0.620098   
     10. B(C  10,C   9)                  1.3987         0.605194   
     11. B(C  10,C   5)                  1.4061         0.588901   
     12. B(C  11,N   3)                  1.4666         0.422326   
     13. B(C  12,C  11)                  1.5425         0.356849   
     14. B(O  13,C  12)                  1.2332         0.995431   
     15. B(N  14,C  12)                  1.3999         0.539582   
     16. B(C  15,N  14)                  1.4568         0.437811   
     17. B(C  16,N  14)                  1.4555         0.439927   
     18. B(H  17,C   0)                  1.0958         0.352509   
     19. B(H  18,C   0)                  1.0932         0.355909   
     20. B(H  19,C   0)                  1.0918         0.357684   
     21. B(H  20,C   4)                  1.0987         0.348793   
     22. B(H  21,C   4)                  1.0930         0.356161   
     23. B(H  22,C   6)                  1.0871         0.364022   
     24. B(H  23,C   7)                  1.0864         0.364937   
     25. B(H  24,C   8)                  1.0866         0.364657   
     26. B(H  25,C   9)                  1.0866         0.364608   
     27. B(H  26,C  10)                  1.0888         0.361714   
     28. B(H  27,C  11)                  1.0966         0.351508   
     29. B(H  28,C  11)                  1.0943         0.354403   
     30. B(H  29,C  15)                  1.0891         0.361237   
     31. B(H  30,C  15)                  1.0940         0.354864   
     32. B(H  31,C  15)                  1.0940         0.354893   
     33. B(H  32,C  16)                  1.0917         0.357894   
     34. B(H  33,C  16)                  1.0948         0.353846   
     35. B(H  34,C  16)                  1.0949         0.353633   
     36. A(C   1,C   0,H  17)          108.6439         0.326806   
     37. A(C   1,C   0,H  19)          110.3517         0.327591   
     38. A(H  18,C   0,H  19)          110.8792         0.289999   
     39. A(C   1,C   0,H  18)          110.9789         0.327323   
     40. A(H  17,C   0,H  19)          108.4909         0.289563   
     41. A(H  17,C   0,H  18)          107.3896         0.289337   
     42. A(O   2,C   1,N   3)          122.2600         0.461258   
     43. A(C   0,C   1,N   3)          118.2343         0.393445   
     44. A(C   0,C   1,O   2)          119.4916         0.434909   
     45. A(C   1,N   3,C   4)          125.1438         0.395076   
     46. A(C   4,N   3,C  11)          117.5154         0.374598   
     47. A(C   1,N   3,C  11)          117.3315         0.394716   
     48. A(C   5,C   4,H  20)          108.6801         0.324346   
     49. A(N   3,C   4,H  20)          107.2877         0.327507   
     50. A(N   3,C   4,C   5)          114.8837         0.371146   
     51. A(H  20,C   4,H  21)          107.2287         0.288889   
     52. A(N   3,C   4,H  21)          109.9417         0.328638   
     53. A(C   5,C   4,H  21)          108.5472         0.325463   
     54. A(C   4,C   5,C   6)          123.2416         0.395908   
     55. A(C   6,C   5,C  10)          117.9582         0.426723   
     56. A(C   4,C   5,C  10)          118.7986         0.395361   
     57. A(C   5,C   6,C   7)          120.9723         0.428962   
     58. A(C   7,C   6,H  22)          118.1234         0.352227   
     59. A(C   5,C   6,H  22)          120.9018         0.350960   
     60. A(C   8,C   7,H  23)          119.8952         0.353486   
     61. A(C   6,C   7,H  23)          119.8993         0.352376   
     62. A(C   6,C   7,C   8)          120.2049         0.432044   
     63. A(C   9,C   8,H  24)          120.2642         0.353671   
     64. A(C   7,C   8,H  24)          120.0369         0.353440   
     65. A(C   7,C   8,C   9)          119.6980         0.433790   
     66. A(C   8,C   9,C  10)          120.0817         0.432196   
     67. A(C  10,C   9,H  25)          120.1489         0.352209   
     68. A(C   8,C   9,H  25)          119.7678         0.353663   
     69. A(C   5,C  10,C   9)          121.0463         0.428209   
     70. A(C   9,C  10,H  26)          118.6359         0.351735   
     71. A(C   5,C  10,H  26)          120.3163         0.350117   
     72. A(H  27,C  11,H  28)          108.5468         0.289016   
     73. A(N   3,C  11,H  28)          107.9510         0.328088   
     74. A(C  12,C  11,H  27)          107.9009         0.320622   
     75. A(N   3,C  11,H  27)          108.3481         0.327645   
     76. A(C  12,C  11,H  28)          107.8546         0.321053   
     77. A(N   3,C  11,C  12)          116.0419         0.365868   
     78. A(O  13,C  12,N  14)          122.2331         0.455108   
     79. A(C  11,C  12,N  14)          116.2713         0.381656   
     80. A(C  11,C  12,O  13)          121.4468         0.425166   
     81. A(C  15,N  14,C  16)          115.3522         0.379267   
     82. A(C  12,N  14,C  16)          119.5295         0.393329   
     83. A(C  12,N  14,C  15)          125.0890         0.392997   
     84. A(H  30,C  15,H  31)          109.3129         0.289509   
     85. A(H  29,C  15,H  31)          108.3454         0.290319   
     86. A(N  14,C  15,H  31)          108.4881         0.330120   
     87. A(H  29,C  15,H  30)          108.4653         0.290315   
     88. A(N  14,C  15,H  30)          108.7525         0.330116   
     89. A(N  14,C  15,H  29)          113.4184         0.331089   
     90. A(H  33,C  16,H  34)          108.9646         0.289218   
     91. A(H  32,C  16,H  34)          108.8616         0.289734   
     92. A(N  14,C  16,H  34)          108.7857         0.330189   
     93. A(H  32,C  16,H  33)          108.9595         0.289761   
     94. A(N  14,C  16,H  33)          108.5349         0.330222   
     95. A(N  14,C  16,H  32)          112.6741         0.330844   
     96. D(N   3,C   1,C   0,H  19)    -74.5441         0.011861   
     97. D(N   3,C   1,C   0,H  18)     48.7781         0.011861   
     98. D(N   3,C   1,C   0,H  17)    166.6296         0.011861   
     99. D(O   2,C   1,C   0,H  18)   -129.8829         0.011861   
    100. D(O   2,C   1,C   0,H  19)    106.7948         0.011861   
    101. D(O   2,C   1,C   0,H  17)    -12.0314         0.011861   
    102. D(C   4,N   3,C   1,C   0)      4.3716         0.026340   
    103. D(C  11,N   3,C   1,O   2)      1.8539         0.026340   
    104. D(C  11,N   3,C   1,C   0)   -176.7679         0.026340   
    105. D(C   4,N   3,C   1,O   2)   -177.0067         0.026340   
    106. D(H  20,C   4,N   3,C   1)    138.6308         0.015366   
    107. D(H  20,C   4,N   3,C  11)    -40.2279         0.015366   
    108. D(H  21,C   4,N   3,C   1)     22.3413         0.015366   
    109. D(C   5,C   4,N   3,C  11)     80.7111         0.015366   
    110. D(C   5,C   4,N   3,C   1)   -100.4303         0.015366   
    111. D(H  21,C   4,N   3,C  11)   -156.5173         0.015366   
    112. D(C  10,C   5,C   4,H  21)     62.3364         0.011091   
    113. D(C  10,C   5,C   4,H  20)    -53.9731         0.011091   
    114. D(C  10,C   5,C   4,N   3)   -174.1465         0.011091   
    115. D(C   6,C   5,C   4,H  21)   -118.1492         0.011091   
    116. D(C   6,C   5,C   4,H  20)    125.5413         0.011091   
    117. D(C   6,C   5,C   4,N   3)      5.3679         0.011091   
    118. D(H  22,C   6,C   5,C   4)      2.0376         0.024260   
    119. D(C   7,C   6,C   5,C  10)      2.1534         0.024260   
    120. D(C   7,C   6,C   5,C   4)   -177.3649         0.024260   
    121. D(H  22,C   6,C   5,C  10)   -178.4442         0.024260   
    122. D(H  23,C   7,C   6,H  22)     -0.6281         0.025375   
    123. D(C   8,C   7,C   6,H  22)    179.6651         0.025375   
    124. D(C   8,C   7,C   6,C   5)     -0.9162         0.025375   
    125. D(H  23,C   7,C   6,C   5)    178.7905         0.025375   
    126. D(C   9,C   8,C   7,C   6)     -0.7893         0.026392   
    127. D(H  24,C   8,C   7,H  23)     -0.1399         0.026392   
    128. D(H  24,C   8,C   7,C   6)    179.5668         0.026392   
    129. D(C   9,C   8,C   7,H  23)    179.5039         0.026392   
    130. D(H  25,C   9,C   8,H  24)      0.3767         0.026608   
    131. D(H  25,C   9,C   8,C   7)   -179.2664         0.026608   
    132. D(C  10,C   9,C   8,H  24)   -179.1664         0.026608   
    133. D(C  10,C   9,C   8,C   7)      1.1906         0.026608   
    134. D(H  26,C  10,C   9,H  25)      0.1252         0.025273   
    135. D(H  26,C  10,C   9,C   8)    179.6664         0.025273   
    136. D(C   5,C  10,C   9,H  25)   -179.4412         0.025273   
    137. D(C   5,C  10,C   9,C   8)      0.1001         0.025273   
    138. D(H  26,C  10,C   5,C   6)    178.6922         0.023862   
    139. D(H  26,C  10,C   5,C   4)     -1.7676         0.023862   
    140. D(C   9,C  10,C   5,C   6)     -1.7487         0.023862   
    141. D(C   9,C  10,C   5,C   4)    177.7915         0.023862   
    142. D(H  28,C  11,N   3,C   4)   -148.6008         0.015208   
    143. D(H  28,C  11,N   3,C   1)     32.4498         0.015208   
    144. D(H  27,C  11,N   3,C   4)    -31.2323         0.015208   
    145. D(H  27,C  11,N   3,C   1)    149.8182         0.015208   
    146. D(C  12,C  11,N   3,C   4)     90.2668         0.015208   
    147. D(C  12,C  11,N   3,C   1)    -88.6826         0.015208   
    148. D(N  14,C  12,C  11,H  28)     55.1789         0.009589   
    149. D(N  14,C  12,C  11,H  27)    -61.9003         0.009589   
    150. D(N  14,C  12,C  11,N   3)    176.3628         0.009589   
    151. D(O  13,C  12,C  11,H  28)   -127.3100         0.009589   
    152. D(O  13,C  12,C  11,H  27)    115.6108         0.009589   
    153. D(O  13,C  12,C  11,N   3)     -6.1261         0.009589   
    154. D(C  16,N  14,C  12,O  13)      1.0681         0.023160   
    155. D(C  16,N  14,C  12,C  11)    178.5578         0.023160   
    156. D(C  15,N  14,C  12,O  13)   -176.8655         0.023160   
    157. D(C  15,N  14,C  12,C  11)      0.6243         0.023160   
    158. D(H  29,C  15,N  14,C  12)     -3.7103         0.016344   
    159. D(H  31,C  15,N  14,C  16)    -61.2908         0.016344   
    160. D(H  31,C  15,N  14,C  12)    116.7196         0.016344   
    161. D(H  30,C  15,N  14,C  16)     57.5117         0.016344   
    162. D(H  30,C  15,N  14,C  12)   -124.4780         0.016344   
    163. D(H  29,C  15,N  14,C  16)    178.2794         0.016344   
    164. D(H  34,C  16,N  14,C  15)    -56.8797         0.016503   
    165. D(H  34,C  16,N  14,C  12)    124.9913         0.016503   
    166. D(H  33,C  16,N  14,C  15)     61.5507         0.016503   
    167. D(H  33,C  16,N  14,C  12)   -116.5782         0.016503   
    168. D(H  32,C  16,N  14,C  15)   -177.6890         0.016503   
    169. D(H  32,C  16,N  14,C  12)      4.1820         0.016503   
    -----------------------------------------------------------------

Number of atoms                         .... 35
Number of degrees of freedom            .... 169

         *************************************************************
         *                GEOMETRY OPTIMIZATION CYCLE   1            *
         *************************************************************
---------------------------------
CARTESIAN COORDINATES (ANGSTROEM)
---------------------------------
  C     1.285480    0.001380   -0.289810
  C     2.774150    0.082270   -0.040560
  O     3.554860   -0.319660   -0.901530
  N     3.209230    0.637650    1.149340
  C     2.338740    1.078800    2.242240
  C     2.091850    2.578760    2.298250
  C     2.556850    3.472310    1.320270
  C     2.349620    4.849220    1.446850
  C     1.656940    5.355760    2.544280
  C     1.157100    4.483290    3.506970
  C     1.371770    3.106620    3.384520
  C     4.657140    0.772890    1.339640
  C     5.373130   -0.438320    1.971730
  O     4.742150   -1.409240    2.396000
  N     6.765550   -0.346130    2.083210
  C     7.565400    0.796940    1.663780
  C     7.509690   -1.435520    2.697990
  H     1.119560   -0.231930   -1.347550
  H     0.802010    0.960660   -0.087090
  H     0.842040   -0.793100    0.313730
  H     2.811160    0.764560    3.183080
  H     1.373620    0.569730    2.178780
  H     3.096830    3.113480    0.447720
  H     2.734070    5.526590    0.689510
  H     1.503560    6.426870    2.643510
  H     0.606310    4.876250    4.357230
  H     0.975100    2.446200    4.153900
  H     4.841350    1.644620    1.978880
  H     5.110230    0.957140    0.360690
  H     6.981870    1.579990    1.181540
  H     8.330130    0.452350    0.961460
  H     8.050740    1.223380    2.546590
  H     6.874750   -2.284490    2.958470
  H     7.990740   -1.059160    3.606540
  H     8.282660   -1.772720    1.999640

----------------------------
CARTESIAN COORDINATES (A.U.)
----------------------------
  NO LB    ZA    FRAG    MASS        X           Y           Z
   0 C   6.0000    0    12.011    2.429205    0.002608   -0.547662
   1 C   6.0000    0    12.011    5.242384    0.155468   -0.076647
   2 O   8.0000    0    15.999    6.717712   -0.604070   -1.703645
   3 N   7.0000    0    14.007    6.064566    1.204984    2.171938
   4 C   6.0000    0    12.011    4.419578    2.038637    4.237220
   5 C   6.0000    0    12.011    3.953024    4.873150    4.343063
   6 C   6.0000    0    12.011    4.831746    6.561715    2.494949
   7 C   6.0000    0    12.011    4.440138    9.163698    2.734150
   8 C   6.0000    0    12.011    3.131163   10.120920    4.807992
   9 C   6.0000    0    12.011    2.186602    8.472190    6.627213
  10 C   6.0000    0    12.011    2.592270    5.870661    6.395816
  11 C   6.0000    0    12.011    8.800719    1.460550    2.531553
  12 C   6.0000    0    12.011   10.153744   -0.828305    3.726030
  13 O   8.0000    0    15.999    8.961365   -2.663078    4.527784
  14 N   7.0000    0    14.007   12.785037   -0.654091    3.936696
  15 C   6.0000    0    12.011   14.296534    1.505998    3.144089
  16 C   6.0000    0    12.011   14.191257   -2.712740    5.098462
  17 H   1.0000    0     1.008    2.115662   -0.438284   -2.546500
  18 H   1.0000    0     1.008    1.515579    1.815384   -0.164576
  19 H   1.0000    0     1.008    1.591225   -1.498742    0.592864
  20 H   1.0000    0     1.008    5.312323    1.444809    6.015149
  21 H   1.0000    0     1.008    2.595766    1.076634    4.117298
  22 H   1.0000    0     1.008    5.852161    5.883625    0.846068
  23 H   1.0000    0     1.008    5.166644   10.443742    1.302985
  24 H   1.0000    0     1.008    2.841317   12.145024    4.995510
  25 H   1.0000    0     1.008    1.145760    9.214777    8.233971
  26 H   1.0000    0     1.008    1.842672    4.622648    7.849733
  27 H   1.0000    0     1.008    9.148826    3.107881    3.739541
  28 H   1.0000    0     1.008    9.656935    1.808732    0.681605
  29 H   1.0000    0     1.008   13.193822    2.985748    2.232787
  30 H   1.0000    0     1.008   15.741664    0.854818    1.816896
  31 H   1.0000    0     1.008   15.213694    2.311853    4.812358
  32 H   1.0000    0     1.008   12.991395   -4.317060    5.590698
  33 H   1.0000    0     1.008   15.100310   -2.001522    6.815373
  34 H   1.0000    0     1.008   15.651959   -3.349955    3.778772

WARNING: MMTOPOL: Setting STACKSIZE soft limit to infinity failed!
      -----------------------------------------------------------      
     |                   =====================                   |     
     |                           x T B                           |     
     |                   =====================                   |     
     |                         S. Grimme                         |     
     |          Mulliken Center for Theoretical Chemistry        |     
     |                    University of Bonn                     |     
      -----------------------------------------------------------      

   * xtb version 6.5.1 (conda-forge) compiled by 'runner@Mac-1657629245115.local' on 2022-07-12

   xtb is free software: you can redistribute it and/or modify it under
   the terms of the GNU Lesser General Public License as published by
   the Free Software Foundation, either version 3 of the License, or
   (at your option) any later version.
   
   xtb is distributed in the hope that it will be useful,
   but WITHOUT ANY WARRANTY; without even the implied warranty of
   MERCHANTABILITY or FITNESS FOR A PARTICULAR PURPOSE.  See the
   GNU Lesser General Public License for more details.
   
   Cite this work as:
   * C. Bannwarth, E. Caldeweyher, S. Ehlert, A. Hansen, P. Pracht,
     J. Seibert, S. Spicher, S. Grimme, WIREs Comput. Mol. Sci., 2020, 11,
     e01493. DOI: 10.1002/wcms.1493
   
   for GFN2-xTB:
   * C. Bannwarth, S. Ehlert and S. Grimme., J. Chem. Theory Comput., 2019,
     15, 1652-1671. DOI: 10.1021/acs.jctc.8b01176
   for GFN1-xTB:
   * S. Grimme, C. Bannwarth, P. Shushkov, J. Chem. Theory Comput., 2017,
     13, 1989-2009. DOI: 10.1021/acs.jctc.7b00118
   for GFN0-xTB:
   * P. Pracht, E. Caldeweyher, S. Ehlert, S. Grimme, ChemRxiv, 2019, preprint.
     DOI: 10.26434/chemrxiv.8326202.v1
   for GFN-FF:
   * S. Spicher and S. Grimme, Angew. Chem. Int. Ed., 2020, 59, 15665-15673.
     DOI: 10.1002/anie.202004239
   
   for ALPB and GBSA implicit solvation:
   * S. Ehlert, M. Stahn, S. Spicher, S. Grimme, J. Chem. Theory Comput.,
     2021, 17, 4250-4261. DOI: 10.1021/acs.jctc.1c00471
   
   for DFT-D4:
   * E. Caldeweyher, C. Bannwarth and S. Grimme, J. Chem. Phys., 2017,
     147, 034112. DOI: 10.1063/1.4993215
   * E. Caldeweyher, S. Ehlert, A. Hansen, H. Neugebauer, S. Spicher,
     C. Bannwarth and S. Grimme, J. Chem. Phys., 2019, 150, 154122.
     DOI: 10.1063/1.5090222
   * E. Caldeweyher, J.-M. Mewes, S. Ehlert and S. Grimme, Phys. Chem. Chem. Phys.
     2020, 22, 8499-8512. DOI: 10.1039/D0CP00502A
   
   for sTDA-xTB:
   * S. Grimme and C. Bannwarth, J. Chem. Phys., 2016, 145, 054103.
     DOI: 10.1063/1.4959605
   
   in the mass-spec context:
   * V. Asgeirsson, C. Bauer and S. Grimme, Chem. Sci., 2017, 8, 4879.
     DOI: 10.1039/c7sc00601b
   * J. Koopman and S. Grimme, ACS Omega 2019, 4, 12, 15120-15133.
     DOI: 10.1021/acsomega.9b02011
   
   for metadynamics refer to:
   * S. Grimme, J. Chem. Theory Comput., 2019, 155, 2847-2862
     DOI: 10.1021/acs.jctc.9b00143
   
   for SPH calculations refer to:
   * S. Spicher and S. Grimme, J. Chem. Theory Comput., 2021, 17, 1701-1714
     DOI: 10.1021/acs.jctc.0c01306
   
   with help from (in alphabetical order)
   P. Atkinson, C. Bannwarth, F. Bohle, G. Brandenburg, E. Caldeweyher
   M. Checinski, S. Dohm, S. Ehlert, S. Ehrlich, I. Gerasimov, C. Hölzer
   A. Katbashev, J. Koopman, C. Lavigne, S. Lehtola, F. März, M. Müller,
   F. Musil, H. Neugebauer, J. Pisarek, C. Plett, P. Pracht, F. Pultar,
   J. Seibert, P. Shushkov, S. Spicher, M. Stahn, M. Steiner, T. Strunk,
   J. Stückrath, T. Rose, and J. Unsleber
   
 * started run on 2022/10/04 at 14:35:13.331     

           -------------------------------------------------
          |                Calculation Setup                |
           -------------------------------------------------

          program call               : xtb R20/xtb.orca_XTB.xyz --grad -c 0 -u 0 -P 1 --namespace R20/xtb.orca --input R20/xtb.orca_XTB.input.tmp --acc 1.000000
          calculation namespace      : R20/xtb.orca
          coordinate file            : R20/xtb.orca_XTB.xyz
          omp threads                :                     1

   ID    Z sym.   atoms
    1    6 C      1, 2, 5-13, 16, 17
    2    8 O      3, 14
    3    7 N      4, 15
    4    1 H      18-35

           -------------------------------------------------
          |                 G F N 2 - x T B                 |
           -------------------------------------------------

        Reference                      10.1021/acs.jctc.8b01176
      * Hamiltonian:
        H0-scaling (s, p, d)           1.850000    2.230000    2.230000
        zeta-weighting                 0.500000
      * Dispersion:
        s8                             2.700000
        a1                             0.520000
        a2                             5.000000
        s9                             5.000000
      * Repulsion:
        kExp                           1.500000    1.000000
        rExp                           1.000000
      * Coulomb:
        alpha                          2.000000
        third order                    shell-resolved
        anisotropic                    true
        a3                             3.000000
        a5                             4.000000
        cn-shift                       1.200000
        cn-exp                         4.000000
        max-rad                        5.000000


          ...................................................
          :                      SETUP                      :
          :.................................................:
          :  # basis functions                  86          :
          :  # atomic orbitals                  86          :
          :  # shells                           52          :
          :  # electrons                        92          :
          :  max. iterations                   250          :
          :  Hamiltonian                  GFN2-xTB          :
          :  restarted?                      false          :
          :  GBSA solvation                  false          :
          :  PC potential                    false          :
          :  electronic temp.          300.0000000     K    :
          :  accuracy                    1.0000000          :
          :  -> integral cutoff          0.2500000E+02      :
          :  -> integral neglect         0.1000000E-07      :
          :  -> SCF convergence          0.1000000E-05 Eh   :
          :  -> wf. convergence          0.1000000E-03 e    :
          :  Broyden damping             0.4000000          :
          ...................................................

 iter      E             dE          RMSdq      gap      omega  full diag
   1    -51.5640678 -0.515641E+02  0.400E+00    3.75       0.0  T
   2    -51.6708704 -0.106803E+00  0.224E+00    3.72       1.0  T
   3    -51.6744760 -0.360566E-02  0.113E+00    3.74       1.0  T
   4    -51.6763142 -0.183815E-02  0.205E-01    3.85       1.0  T
   5    -51.6773276 -0.101342E-02  0.848E-02    3.84       1.0  T
   6    -51.6774159 -0.883258E-04  0.418E-02    3.85       1.0  T
   7    -51.6774243 -0.832949E-05  0.203E-02    3.85       1.0  T
   8    -51.6774280 -0.371121E-05  0.481E-03    3.85       3.5  T
   9    -51.6774281 -0.177689E-06  0.203E-03    3.85       8.3  T
  10    -51.6774281 -0.965664E-08  0.102E-03    3.85      16.6  T
  11    -51.6774282 -0.121878E-07  0.455E-04    3.85      37.2  T
  12    -51.6774282 -0.231745E-08  0.108E-04    3.85     156.2  T

   *** convergence criteria satisfied after 12 iterations ***

         #    Occupation            Energy/Eh            Energy/eV
      -------------------------------------------------------------
         1        2.0000           -0.6897648             -18.7695
       ...           ...                  ...                  ...
        40        2.0000           -0.4309623             -11.7271
        41        2.0000           -0.4105933             -11.1728
        42        2.0000           -0.4066855             -11.0665
        43        2.0000           -0.4041296             -10.9969
        44        2.0000           -0.3882797             -10.5656
        45        2.0000           -0.3837241             -10.4417
        46        2.0000           -0.3765976             -10.2477 (HOMO)
        47                         -0.2351326              -6.3983 (LUMO)
        48                         -0.2328556              -6.3363
        49                         -0.2151280              -5.8539
        50                         -0.2037622              -5.5447
        51                         -0.1094000              -2.9769
       ...                                ...                  ...
        86                          0.6174164              16.8008
      -------------------------------------------------------------
                  HL-Gap            0.1414650 Eh            3.8495 eV
             Fermi-level           -0.3058651 Eh           -8.3230 eV

 SCC (total)                   0 d,  0 h,  0 min,  0.025 sec
 SCC setup                      ...        0 min,  0.000 sec (  0.366%)
 Dispersion                     ...        0 min,  0.000 sec (  0.693%)
 classical contributions        ...        0 min,  0.000 sec (  0.309%)
 integral evaluation            ...        0 min,  0.003 sec ( 10.827%)
 iterations                     ...        0 min,  0.011 sec ( 45.372%)
 molecular gradient             ...        0 min,  0.010 sec ( 40.957%)
 printout                       ...        0 min,  0.000 sec (  1.431%)

         :::::::::::::::::::::::::::::::::::::::::::::::::::::
         ::                     SUMMARY                     ::
         :::::::::::::::::::::::::::::::::::::::::::::::::::::
         :: total energy             -51.007736260376 Eh    ::
         :: gradient norm              0.070827704620 Eh/a0 ::
         :: HOMO-LUMO gap              3.849458907332 eV    ::
         ::.................................................::
         :: SCC energy               -51.677428163767 Eh    ::
         :: -> isotropic ES            0.077847394992 Eh    ::
         :: -> anisotropic ES          0.005676897740 Eh    ::
         :: -> anisotropic XC          0.023149788954 Eh    ::
         :: -> dispersion             -0.031739253228 Eh    ::
         :: repulsion energy           0.669421528803 Eh    ::
         :: add. restraining           0.000000000000 Eh    ::
         :: total charge              -0.000000000000 e     ::
         :::::::::::::::::::::::::::::::::::::::::::::::::::::


Property printout bound to 'properties.out'

           -------------------------------------------------
          | TOTAL ENERGY              -51.007736260376 Eh   |
          | GRADIENT NORM               0.070827704620 Eh/α |
          | HOMO-LUMO GAP               3.849458907332 eV   |
           -------------------------------------------------

------------------------------------------------------------------------
 * finished run on 2022/10/04 at 14:35:13.370     
------------------------------------------------------------------------
 total:
 * wall-time:     0 d,  0 h,  0 min,  0.038 sec
 *  cpu-time:     0 d,  0 h,  0 min,  0.031 sec
 * ratio c/w:     0.824 speedup
 SCF:
 * wall-time:     0 d,  0 h,  0 min,  0.025 sec
 *  cpu-time:     0 d,  0 h,  0 min,  0.025 sec
 * ratio c/w:     0.991 speedup


-------------------------   --------------------
FINAL SINGLE POINT ENERGY       -51.007736260380
-------------------------   --------------------

------------------------------------------------------------------------------
                         ORCA GEOMETRY RELAXATION STEP
------------------------------------------------------------------------------

Reading the OPT-File                    .... done
Getting information on internals        .... done
Copying old internal coords+grads       .... done
Making the new internal coordinates     .... (new redundants).... done
Validating the new internal coordinates .... (new redundants).... done
Calculating the B-matrix                .... done
Calculating the G,G- and P matrices     .... done
Transforming gradient to internals      .... done
Projecting the internal gradient        .... done
Number of atoms                         ....  35
Number of internal coordinates          .... 169
Current Energy                          ....   -51.007736260 Eh
Current gradient norm                   ....     0.070827705 Eh/bohr
Maximum allowed component of the step   ....  0.300
Current trust radius                    ....  0.300
Evaluating the initial hessian          ....  (Almloef) done
Projecting the Hessian                  .... done
Forming the augmented Hessian           .... done
Diagonalizing the augmented Hessian     .... done
Last element of RFO vector              ....  0.972128290
Lowest eigenvalues of augmented Hessian:
 -0.015525841  0.009641996  0.011109967  0.011867296  0.015159306
Length of the computed step             ....  0.241171401
The final length of the internal step   ....  0.241171401
Converting the step to cartesian space:
 Initial RMS(Int)=    0.0185516462
Transforming coordinates:
 Iter   0:  RMS(Cart)=    0.1234845593 RMS(Int)=    0.0182169735
 Iter   1:  RMS(Cart)=    0.0045194305 RMS(Int)=    0.0017263807
 Iter   2:  RMS(Cart)=    0.0002562689 RMS(Int)=    0.0000608611
 Iter   3:  RMS(Cart)=    0.0000208936 RMS(Int)=    0.0000110116
 Iter   4:  RMS(Cart)=    0.0000014747 RMS(Int)=    0.0000005417
 Iter   5:  RMS(Cart)=    0.0000001308 RMS(Int)=    0.0000000887
 Iter   6:  RMS(Cart)=    0.0000000114 RMS(Int)=    0.0000000053
done
Storing new coordinates                 .... done

                                .--------------------.
          ----------------------|Geometry convergence|-------------------------
          Item                value                   Tolerance       Converged
          ---------------------------------------------------------------------
          RMS gradient        0.0067682377            0.0001000000      NO
          MAX gradient        0.0391918665            0.0003000000      NO
          RMS step            0.0185516462            0.0020000000      NO
          MAX step            0.0706022149            0.0040000000      NO
          ........................................................
          Max(Bonds)      0.0374      Max(Angles)    3.36
          Max(Dihed)        3.92      Max(Improp)    0.00
          ---------------------------------------------------------------------

The optimization has not yet converged - more geometry cycles are needed


    ---------------------------------------------------------------------------
                         Redundant Internal Coordinates
                            (Angstroem and degrees)

        Definition                    Value    dE/dq     Step     New-Value
    ----------------------------------------------------------------------------
     1. B(C   1,C   0)                1.5116  0.001403 -0.0018    1.5098   
     2. B(O   2,C   1)                1.2298  0.021583 -0.0112    1.2186   
     3. B(N   3,C   1)                1.3833  0.027088 -0.0243    1.3590   
     4. B(C   4,N   3)                1.4652  0.018464 -0.0222    1.4430   
     5. B(C   5,C   4)                1.5212  0.008544 -0.0113    1.5099   
     6. B(C   6,C   5)                1.4040  0.017262 -0.0151    1.3888   
     7. B(C   7,C   6)                1.3982  0.013793 -0.0117    1.3864   
     8. B(C   8,C   7)                1.3931  0.010189 -0.0084    1.3847   
     9. B(C   9,C   8)                1.3921  0.008362 -0.0068    1.3852   
    10. B(C  10,C   9)                1.3987  0.015935 -0.0136    1.3851   
    11. B(C  10,C   5)                1.4061  0.016257 -0.0144    1.3917   
    12. B(C  11,N   3)                1.4666  0.020892 -0.0252    1.4414   
    13. B(C  12,C  11)                1.5425  0.011131 -0.0158    1.5266   
    14. B(O  13,C  12)                1.2332  0.032076 -0.0168    1.2164   
    15. B(N  14,C  12)                1.3999  0.039192 -0.0374    1.3626   
    16. B(C  15,N  14)                1.4568  0.011379 -0.0133    1.4435   
    17. B(C  16,N  14)                1.4555  0.010765 -0.0125    1.4430   
    18. B(H  17,C   0)                1.0958  0.005557 -0.0080    1.0878   
    19. B(H  18,C   0)                1.0932  0.002861 -0.0041    1.0891   
    20. B(H  19,C   0)                1.0918  0.002927 -0.0041    1.0877   
    21. B(H  20,C   4)                1.0987  0.001997 -0.0029    1.0958   
    22. B(H  21,C   4)                1.0930  0.001214 -0.0017    1.0913   
    23. B(H  22,C   6)                1.0871  0.004445 -0.0062    1.0809   
    24. B(H  23,C   7)                1.0864  0.004675 -0.0065    1.0799   
    25. B(H  24,C   8)                1.0866  0.004609 -0.0064    1.0802   
    26. B(H  25,C   9)                1.0866  0.004849 -0.0068    1.0799   
    27. B(H  26,C  10)                1.0888  0.005478 -0.0077    1.0811   
    28. B(H  27,C  11)                1.0966  0.000899 -0.0013    1.0953   
    29. B(H  28,C  11)                1.0943  0.000096 -0.0001    1.0942   
    30. B(H  29,C  15)                1.0891  0.004552 -0.0064    1.0827   
    31. B(H  30,C  15)                1.0940  0.000802 -0.0011    1.0928   
    32. B(H  31,C  15)                1.0940 -0.000151  0.0002    1.0942   
    33. B(H  32,C  16)                1.0917  0.004387 -0.0062    1.0855   
    34. B(H  33,C  16)                1.0948  0.000432 -0.0006    1.0942   
    35. B(H  34,C  16)                1.0949  0.001370 -0.0020    1.0930   
    36. A(C   1,C   0,H  17)          108.64  0.003102   -0.43    108.22   
    37. A(C   1,C   0,H  19)          110.35 -0.000308   -0.09    110.26   
    38. A(H  18,C   0,H  19)          110.88  0.002208   -0.62    110.26   
    39. A(C   1,C   0,H  18)          110.98 -0.001400    0.27    111.25   
    40. A(H  17,C   0,H  19)          108.49 -0.000733    0.04    108.53   
    41. A(H  17,C   0,H  18)          107.39 -0.002888    0.85    108.24   
    42. A(O   2,C   1,N   3)          122.26  0.007528   -0.90    121.36   
    43. A(C   0,C   1,N   3)          118.23  0.006301   -0.88    117.35   
    44. A(C   0,C   1,O   2)          119.49 -0.013817    1.76    121.25   
    45. A(C   1,N   3,C   4)          125.14 -0.000646    0.09    125.23   
    46. A(C   4,N   3,C  11)          117.52  0.001016   -0.15    117.36   
    47. A(C   1,N   3,C  11)          117.33 -0.000359    0.05    117.38   
    48. A(C   5,C   4,H  20)          108.68 -0.002266    0.47    109.15   
    49. A(N   3,C   4,H  20)          107.29 -0.001676    0.25    107.54   
    50. A(N   3,C   4,C   5)          114.88  0.006211   -1.05    113.83   
    51. A(H  20,C   4,H  21)          107.23  0.000718    0.13    107.36   
    52. A(N   3,C   4,H  21)          109.94 -0.000303   -0.17    109.77   
    53. A(C   5,C   4,H  21)          108.55 -0.002969    0.44    108.99   
    54. A(C   4,C   5,C   6)          123.24  0.004514   -0.59    122.65   
    55. A(C   6,C   5,C  10)          117.96 -0.004390    0.55    118.50   
    56. A(C   4,C   5,C  10)          118.80 -0.000126    0.05    118.85   
    57. A(C   5,C   6,C   7)          120.97  0.001298   -0.19    120.78   
    58. A(C   7,C   6,H  22)          118.12 -0.003608    0.56    118.68   
    59. A(C   5,C   6,H  22)          120.90  0.002304   -0.36    120.54   
    60. A(C   8,C   7,H  23)          119.90 -0.000985    0.13    120.03   
    61. A(C   6,C   7,H  23)          119.90  0.000507   -0.10    119.80   
    62. A(C   6,C   7,C   8)          120.20  0.000477   -0.03    120.17   
    63. A(C   9,C   8,H  24)          120.26 -0.000384    0.02    120.29   
    64. A(C   7,C   8,H  24)          120.04 -0.000743    0.08    120.12   
    65. A(C   7,C   8,C   9)          119.70  0.001126   -0.10    119.60   
    66. A(C   8,C   9,C  10)          120.08  0.000358   -0.02    120.06   
    67. A(C  10,C   9,H  25)          120.15  0.000895   -0.16    119.99   
    68. A(C   8,C   9,H  25)          119.77 -0.001254    0.18    119.95   
    69. A(C   5,C  10,C   9)          121.05  0.001108   -0.17    120.88   
    70. A(C   9,C  10,H  26)          118.64 -0.002735    0.43    119.06   
    71. A(C   5,C  10,H  26)          120.32  0.001625   -0.25    120.06   
    72. A(H  27,C  11,H  28)          108.55  0.000309    1.12    109.67   
    73. A(N   3,C  11,H  28)          107.95 -0.002103   -0.09    107.86   
    74. A(C  12,C  11,H  27)          107.90 -0.005566    0.89    108.79   
    75. A(N   3,C  11,H  27)          108.35 -0.004822    0.56    108.91   
    76. A(C  12,C  11,H  28)          107.85 -0.007401    1.14    108.99   
    77. A(N   3,C  11,C  12)          116.04  0.018817   -3.36    112.68   
    78. A(O  13,C  12,N  14)          122.23  0.004890   -0.60    121.63   
    79. A(C  11,C  12,N  14)          116.27 -0.002206    0.31    116.58   
    80. A(C  11,C  12,O  13)          121.45 -0.002709    0.34    121.79   
    81. A(C  15,N  14,C  16)          115.35  0.002823   -0.40    114.95   
    82. A(C  12,N  14,C  16)          119.53  0.004577   -0.63    118.90   
    83. A(C  12,N  14,C  15)          125.09 -0.007407    1.05    126.14   
    84. A(H  30,C  15,H  31)          109.31  0.002149   -0.37    108.94   
    85. A(H  29,C  15,H  31)          108.35 -0.000848    0.21    108.55   
    86. A(N  14,C  15,H  31)          108.49 -0.003023    0.54    109.02   
    87. A(H  29,C  15,H  30)          108.47 -0.000807    0.08    108.55   
    88. A(N  14,C  15,H  30)          108.75 -0.001820    0.28    109.03   
    89. A(N  14,C  15,H  29)          113.42  0.004385   -0.74    112.68   
    90. A(H  33,C  16,H  34)          108.96  0.001241    0.15    109.12   
    91. A(H  32,C  16,H  34)          108.86 -0.002805    0.30    109.16   
    92. A(N  14,C  16,H  34)          108.79 -0.003332    0.60    109.39   
    93. A(H  32,C  16,H  33)          108.96 -0.002326    0.27    109.23   
    94. A(N  14,C  16,H  33)          108.53 -0.004789    0.87    109.41   
    95. A(N  14,C  16,H  32)          112.67  0.011810   -2.13    110.54   
    96. D(N   3,C   1,C   0,H  19)    -74.54 -0.000104    0.01    -74.53   
    97. D(N   3,C   1,C   0,H  18)     48.78  0.001525   -0.66     48.12   
    98. D(N   3,C   1,C   0,H  17)    166.63 -0.000919    0.28    166.91   
    99. D(O   2,C   1,C   0,H  18)   -129.88  0.000818    0.37   -129.52   
   100. D(O   2,C   1,C   0,H  19)    106.79 -0.000811    1.04    107.83   
   101. D(O   2,C   1,C   0,H  17)    -12.03 -0.001626    1.30    -10.73   
   102. D(C   4,N   3,C   1,C   0)      4.37  0.000357   -0.16      4.21   
   103. D(C  11,N   3,C   1,O   2)      1.85  0.001506   -2.39     -0.53   
   104. D(C  11,N   3,C   1,C   0)   -176.77  0.001080   -1.37   -178.14   
   105. D(C   4,N   3,C   1,O   2)   -177.01  0.000783   -1.18   -178.19   
   106. D(H  20,C   4,N   3,C   1)    138.63 -0.000177    0.35    138.98   
   107. D(H  20,C   4,N   3,C  11)    -40.23 -0.000887    1.55    -38.67   
   108. D(H  21,C   4,N   3,C   1)     22.34  0.000066    0.14     22.48   
   109. D(C   5,C   4,N   3,C  11)     80.71 -0.001014    1.66     82.37   
   110. D(C   5,C   4,N   3,C   1)   -100.43 -0.000305    0.45    -99.98   
   111. D(H  21,C   4,N   3,C  11)   -156.52 -0.000643    1.35   -155.17   
   112. D(C  10,C   5,C   4,H  21)     62.34 -0.001371    0.84     63.18   
   113. D(C  10,C   5,C   4,H  20)    -53.97  0.000617    0.19    -53.78   
   114. D(C  10,C   5,C   4,N   3)   -174.15  0.000327    0.22   -173.93   
   115. D(C   6,C   5,C   4,H  21)   -118.15 -0.001701    1.33   -116.82   
   116. D(C   6,C   5,C   4,H  20)    125.54  0.000287    0.68    126.22   
   117. D(C   6,C   5,C   4,N   3)      5.37 -0.000003    0.71      6.08   
   118. D(H  22,C   6,C   5,C   4)      2.04  0.000290   -0.50      1.54   
   119. D(C   7,C   6,C   5,C  10)      2.15  0.000640   -0.90      1.25   
   120. D(C   7,C   6,C   5,C   4)   -177.36  0.000948   -1.39   -178.75   
   121. D(H  22,C   6,C   5,C  10)   -178.44 -0.000019   -0.02   -178.46   
   122. D(H  23,C   7,C   6,H  22)     -0.63  0.000056   -0.13     -0.76   
   123. D(C   8,C   7,C   6,H  22)    179.67  0.000221   -0.38    179.28   
   124. D(C   8,C   7,C   6,C   5)     -0.92 -0.000386    0.47     -0.44   
   125. D(H  23,C   7,C   6,C   5)    178.79 -0.000550    0.72    179.51   
   126. D(C   9,C   8,C   7,C   6)     -0.79 -0.000175    0.19     -0.60   
   127. D(H  24,C   8,C   7,H  23)     -0.14  0.000110   -0.17     -0.31   
   128. D(H  24,C   8,C   7,C   6)    179.57 -0.000051    0.08    179.65   
   129. D(C   9,C   8,C   7,H  23)    179.50 -0.000015   -0.06    179.45   
   130. D(H  25,C   9,C   8,H  24)      0.38  0.000001    0.01      0.39   
   131. D(H  25,C   9,C   8,C   7)   -179.27  0.000127   -0.10   -179.37   
   132. D(C  10,C   9,C   8,H  24)   -179.17  0.000177   -0.26   -179.43   
   133. D(C  10,C   9,C   8,C   7)      1.19  0.000303   -0.38      0.81   
   134. D(H  26,C  10,C   9,H  25)      0.13  0.000050   -0.03      0.10   
   135. D(H  26,C  10,C   9,C   8)    179.67 -0.000137    0.25    179.92   
   136. D(C   5,C  10,C   9,H  25)   -179.44  0.000299   -0.37   -179.81   
   137. D(C   5,C  10,C   9,C   8)      0.10  0.000113   -0.09      0.01   
   138. D(H  26,C  10,C   5,C   6)    178.69 -0.000238    0.36    179.06   
   139. D(H  26,C  10,C   5,C   4)     -1.77 -0.000508    0.82     -0.95   
   140. D(C   9,C  10,C   5,C   6)     -1.75 -0.000511    0.72     -1.03   
   141. D(C   9,C  10,C   5,C   4)    177.79 -0.000780    1.17    178.97   
   142. D(H  28,C  11,N   3,C   4)   -148.60  0.003292   -3.92   -152.52   
   143. D(H  28,C  11,N   3,C   1)     32.45  0.002644   -2.81     29.64   
   144. D(H  27,C  11,N   3,C   4)    -31.23 -0.000068   -2.35    -33.58   
   145. D(H  27,C  11,N   3,C   1)    149.82 -0.000717   -1.23    148.58   
   146. D(C  12,C  11,N   3,C   4)     90.27  0.001858   -3.06     87.20   
   147. D(C  12,C  11,N   3,C   1)    -88.68  0.001209   -1.95    -90.63   
   148. D(N  14,C  12,C  11,H  28)     55.18 -0.002807   -0.42     54.76   
   149. D(N  14,C  12,C  11,H  27)    -61.90  0.003667   -2.80    -64.70   
   150. D(N  14,C  12,C  11,N   3)    176.36  0.001438   -1.93    174.44   
   151. D(O  13,C  12,C  11,H  28)   -127.31 -0.003331    0.71   -126.60   
   152. D(O  13,C  12,C  11,H  27)    115.61  0.003143   -1.67    113.94   
   153. D(O  13,C  12,C  11,N   3)     -6.13  0.000914   -0.80     -6.92   
   154. D(C  16,N  14,C  12,O  13)      1.07  0.000298   -0.41      0.66   
   155. D(C  16,N  14,C  12,C  11)    178.56 -0.000439    0.75    179.31   
   156. D(C  15,N  14,C  12,O  13)   -176.87  0.000471   -0.80   -177.67   
   157. D(C  15,N  14,C  12,C  11)      0.62 -0.000266    0.36      0.99   
   158. D(H  29,C  15,N  14,C  12)     -3.71  0.000249    0.06     -3.65   
   159. D(H  31,C  15,N  14,C  16)    -61.29  0.000004   -0.14    -61.43   
   160. D(H  31,C  15,N  14,C  12)    116.72 -0.000120    0.23    116.95   
   161. D(H  30,C  15,N  14,C  16)     57.51 -0.000180   -0.13     57.38   
   162. D(H  30,C  15,N  14,C  12)   -124.48 -0.000303    0.24   -124.23   
   163. D(H  29,C  15,N  14,C  16)    178.28  0.000373   -0.31    177.97   
   164. D(H  34,C  16,N  14,C  15)    -56.88  0.001542   -0.51    -57.39   
   165. D(H  34,C  16,N  14,C  12)    124.99  0.001913   -0.89    124.10   
   166. D(H  33,C  16,N  14,C  15)     61.55 -0.001577    0.51     62.06   
   167. D(H  33,C  16,N  14,C  12)   -116.58 -0.001206    0.12   -116.45   
   168. D(H  32,C  16,N  14,C  15)   -177.69 -0.000243    0.08   -177.61   
   169. D(H  32,C  16,N  14,C  12)      4.18  0.000128   -0.31      3.88   
    ----------------------------------------------------------------------------

         *************************************************************
         *                GEOMETRY OPTIMIZATION CYCLE   2            *
         *************************************************************
---------------------------------
CARTESIAN COORDINATES (ANGSTROEM)
---------------------------------
  C     1.358437    0.033741   -0.227029
  C     2.849018    0.162584   -0.024614
  O     3.635937   -0.165808   -0.895203
  N     3.275583    0.704803    1.146242
  C     2.422937    1.087961    2.245519
  C     2.129127    2.567908    2.302639
  C     2.534897    3.451124    1.310597
  C     2.266449    4.807317    1.414872
  C     1.578420    5.298227    2.511722
  C     1.149504    4.424499    3.497343
  C     1.423536    3.070913    3.391699
  C     4.696969    0.865763    1.323103
  C     5.349698   -0.348959    1.978126
  O     4.690323   -1.274070    2.412970
  N     6.708554   -0.331599    2.076919
  C     7.580325    0.732589    1.639559
  C     7.376578   -1.447880    2.701320
  H     1.175716   -0.189779   -1.275829
  H     0.845135    0.962509    0.018070
  H     0.965974   -0.783455    0.373985
  H     2.922691    0.784707    3.172355
  H     1.480423    0.540766    2.189784
  H     3.063170    3.092445    0.438518
  H     2.596188    5.480970    0.637971
  H     1.374720    6.355743    2.594882
  H     0.603515    4.799808    4.350070
  H     1.082293    2.403647    4.170855
  H     4.879256    1.744942    1.950360
  H     5.142603    1.019529    0.335659
  H     7.045527    1.534169    1.145791
  H     8.317542    0.325760    0.942921
  H     8.102433    1.145581    2.507933
  H     6.661680   -2.221499    2.963328
  H     7.885949   -1.106137    3.607365
  H     8.115275   -1.861380    2.009998

----------------------------
CARTESIAN COORDINATES (A.U.)
----------------------------
  NO LB    ZA    FRAG    MASS        X           Y           Z
   0 C   6.0000    0    12.011    2.567073    0.063761   -0.429023
   1 C   6.0000    0    12.011    5.383864    0.307239   -0.046513
   2 O   8.0000    0    15.999    6.870925   -0.313332   -1.691688
   3 N   7.0000    0    14.007    6.189955    1.331885    2.166084
   4 C   6.0000    0    12.011    4.578687    2.055948    4.243416
   5 C   6.0000    0    12.011    4.023467    4.852643    4.351357
   6 C   6.0000    0    12.011    4.790261    6.521679    2.476669
   7 C   6.0000    0    12.011    4.282968    9.084513    2.673720
   8 C   6.0000    0    12.011    2.982782   10.012198    4.746466
   9 C   6.0000    0    12.011    2.172247    8.361091    6.609020
  10 C   6.0000    0    12.011    2.690093    5.803184    6.409383
  11 C   6.0000    0    12.011    8.875984    1.636056    2.500303
  12 C   6.0000    0    12.011   10.109463   -0.659436    3.738116
  13 O   8.0000    0    15.999    8.863425   -2.407644    4.559853
  14 N   7.0000    0    14.007   12.677329   -0.626631    3.924808
  15 C   6.0000    0    12.011   14.324738    1.384393    3.098318
  16 C   6.0000    0    12.011   13.939713   -2.736097    5.104754
  17 H   1.0000    0     1.008    2.221782   -0.358631   -2.410967
  18 H   1.0000    0     1.008    1.597074    1.818879    0.034148
  19 H   1.0000    0     1.008    1.825426   -1.480515    0.706729
  20 H   1.0000    0     1.008    5.523085    1.482882    5.994881
  21 H   1.0000    0     1.008    2.797595    1.021900    4.138092
  22 H   1.0000    0     1.008    5.788553    5.843874    0.828680
  23 H   1.0000    0     1.008    4.906084   10.357532    1.205590
  24 H   1.0000    0     1.008    2.597845   12.010613    4.903616
  25 H   1.0000    0     1.008    1.140479    9.070322    8.220441
  26 H   1.0000    0     1.008    2.045237    4.542235    7.881773
  27 H   1.0000    0     1.008    9.220457    3.297462    3.685646
  28 H   1.0000    0     1.008    9.718110    1.926631    0.634303
  29 H   1.0000    0     1.008   13.314117    2.899158    2.165231
  30 H   1.0000    0     1.008   15.717876    0.615598    1.781862
  31 H   1.0000    0     1.008   15.311379    2.164834    4.739307
  32 H   1.0000    0     1.008   12.588750   -4.198024    5.599879
  33 H   1.0000    0     1.008   14.902285   -2.090297    6.816931
  34 H   1.0000    0     1.008   15.335648   -3.517498    3.798346

WARNING: MMTOPOL: Setting STACKSIZE soft limit to infinity failed!
      -----------------------------------------------------------      
     |                   =====================                   |     
     |                           x T B                           |     
     |                   =====================                   |     
     |                         S. Grimme                         |     
     |          Mulliken Center for Theoretical Chemistry        |     
     |                    University of Bonn                     |     
      -----------------------------------------------------------      

   * xtb version 6.5.1 (conda-forge) compiled by 'runner@Mac-1657629245115.local' on 2022-07-12

   xtb is free software: you can redistribute it and/or modify it under
   the terms of the GNU Lesser General Public License as published by
   the Free Software Foundation, either version 3 of the License, or
   (at your option) any later version.
   
   xtb is distributed in the hope that it will be useful,
   but WITHOUT ANY WARRANTY; without even the implied warranty of
   MERCHANTABILITY or FITNESS FOR A PARTICULAR PURPOSE.  See the
   GNU Lesser General Public License for more details.
   
   Cite this work as:
   * C. Bannwarth, E. Caldeweyher, S. Ehlert, A. Hansen, P. Pracht,
     J. Seibert, S. Spicher, S. Grimme, WIREs Comput. Mol. Sci., 2020, 11,
     e01493. DOI: 10.1002/wcms.1493
   
   for GFN2-xTB:
   * C. Bannwarth, S. Ehlert and S. Grimme., J. Chem. Theory Comput., 2019,
     15, 1652-1671. DOI: 10.1021/acs.jctc.8b01176
   for GFN1-xTB:
   * S. Grimme, C. Bannwarth, P. Shushkov, J. Chem. Theory Comput., 2017,
     13, 1989-2009. DOI: 10.1021/acs.jctc.7b00118
   for GFN0-xTB:
   * P. Pracht, E. Caldeweyher, S. Ehlert, S. Grimme, ChemRxiv, 2019, preprint.
     DOI: 10.26434/chemrxiv.8326202.v1
   for GFN-FF:
   * S. Spicher and S. Grimme, Angew. Chem. Int. Ed., 2020, 59, 15665-15673.
     DOI: 10.1002/anie.202004239
   
   for ALPB and GBSA implicit solvation:
   * S. Ehlert, M. Stahn, S. Spicher, S. Grimme, J. Chem. Theory Comput.,
     2021, 17, 4250-4261. DOI: 10.1021/acs.jctc.1c00471
   
   for DFT-D4:
   * E. Caldeweyher, C. Bannwarth and S. Grimme, J. Chem. Phys., 2017,
     147, 034112. DOI: 10.1063/1.4993215
   * E. Caldeweyher, S. Ehlert, A. Hansen, H. Neugebauer, S. Spicher,
     C. Bannwarth and S. Grimme, J. Chem. Phys., 2019, 150, 154122.
     DOI: 10.1063/1.5090222
   * E. Caldeweyher, J.-M. Mewes, S. Ehlert and S. Grimme, Phys. Chem. Chem. Phys.
     2020, 22, 8499-8512. DOI: 10.1039/D0CP00502A
   
   for sTDA-xTB:
   * S. Grimme and C. Bannwarth, J. Chem. Phys., 2016, 145, 054103.
     DOI: 10.1063/1.4959605
   
   in the mass-spec context:
   * V. Asgeirsson, C. Bauer and S. Grimme, Chem. Sci., 2017, 8, 4879.
     DOI: 10.1039/c7sc00601b
   * J. Koopman and S. Grimme, ACS Omega 2019, 4, 12, 15120-15133.
     DOI: 10.1021/acsomega.9b02011
   
   for metadynamics refer to:
   * S. Grimme, J. Chem. Theory Comput., 2019, 155, 2847-2862
     DOI: 10.1021/acs.jctc.9b00143
   
   for SPH calculations refer to:
   * S. Spicher and S. Grimme, J. Chem. Theory Comput., 2021, 17, 1701-1714
     DOI: 10.1021/acs.jctc.0c01306
   
   with help from (in alphabetical order)
   P. Atkinson, C. Bannwarth, F. Bohle, G. Brandenburg, E. Caldeweyher
   M. Checinski, S. Dohm, S. Ehlert, S. Ehrlich, I. Gerasimov, C. Hölzer
   A. Katbashev, J. Koopman, C. Lavigne, S. Lehtola, F. März, M. Müller,
   F. Musil, H. Neugebauer, J. Pisarek, C. Plett, P. Pracht, F. Pultar,
   J. Seibert, P. Shushkov, S. Spicher, M. Stahn, M. Steiner, T. Strunk,
   J. Stückrath, T. Rose, and J. Unsleber
   
 * started run on 2022/10/04 at 14:35:13.645     

           -------------------------------------------------
          |                Calculation Setup                |
           -------------------------------------------------

          program call               : xtb R20/xtb.orca_XTB.xyz --grad -c 0 -u 0 -P 1 --namespace R20/xtb.orca --input R20/xtb.orca_XTB.input.tmp --acc 1.000000
          calculation namespace      : R20/xtb.orca
          coordinate file            : R20/xtb.orca_XTB.xyz
          omp threads                :                     1

   ID    Z sym.   atoms
    1    6 C      1, 2, 5-13, 16, 17
    2    8 O      3, 14
    3    7 N      4, 15
    4    1 H      18-35

           -------------------------------------------------
          |                 G F N 2 - x T B                 |
           -------------------------------------------------

        Reference                      10.1021/acs.jctc.8b01176
      * Hamiltonian:
        H0-scaling (s, p, d)           1.850000    2.230000    2.230000
        zeta-weighting                 0.500000
      * Dispersion:
        s8                             2.700000
        a1                             0.520000
        a2                             5.000000
        s9                             5.000000
      * Repulsion:
        kExp                           1.500000    1.000000
        rExp                           1.000000
      * Coulomb:
        alpha                          2.000000
        third order                    shell-resolved
        anisotropic                    true
        a3                             3.000000
        a5                             4.000000
        cn-shift                       1.200000
        cn-exp                         4.000000
        max-rad                        5.000000

q/qsh data taken from xtbrestart
CAMM data taken from xtbrestart

          ...................................................
          :                      SETUP                      :
          :.................................................:
          :  # basis functions                  86          :
          :  # atomic orbitals                  86          :
          :  # shells                           52          :
          :  # electrons                        92          :
          :  max. iterations                   250          :
          :  Hamiltonian                  GFN2-xTB          :
          :  restarted?                       true          :
          :  GBSA solvation                  false          :
          :  PC potential                    false          :
          :  electronic temp.          300.0000000     K    :
          :  accuracy                    1.0000000          :
          :  -> integral cutoff          0.2500000E+02      :
          :  -> integral neglect         0.1000000E-07      :
          :  -> SCF convergence          0.1000000E-05 Eh   :
          :  -> wf. convergence          0.1000000E-03 e    :
          :  Broyden damping             0.4000000          :
          ...................................................

 iter      E             dE          RMSdq      gap      omega  full diag
   1    -51.7355500 -0.517356E+02  0.338E-01    3.89       0.0  T
   2    -51.7360183 -0.468272E-03  0.206E-01    3.92       1.0  T
   3    -51.7360216 -0.327301E-05  0.871E-02    3.92       1.0  T
   4    -51.7360554 -0.338060E-04  0.173E-02    3.93       1.0  T
   5    -51.7360658 -0.104530E-04  0.542E-03    3.92       3.1  T
   6    -51.7360662 -0.327508E-06  0.297E-03    3.92       5.7  T
   7    -51.7360662 -0.639699E-07  0.863E-04    3.92      19.6  T
   8    -51.7360662 -0.411514E-08  0.376E-04    3.92      45.0  T

   *** convergence criteria satisfied after 8 iterations ***

         #    Occupation            Energy/Eh            Energy/eV
      -------------------------------------------------------------
         1        2.0000           -0.6957814             -18.9332
       ...           ...                  ...                  ...
        40        2.0000           -0.4295618             -11.6890
        41        2.0000           -0.4117545             -11.2044
        42        2.0000           -0.4061272             -11.0513
        43        2.0000           -0.4045207             -11.0076
        44        2.0000           -0.3901666             -10.6170
        45        2.0000           -0.3831269             -10.4254
        46        2.0000           -0.3755910             -10.2204 (HOMO)
        47                         -0.2314220              -6.2973 (LUMO)
        48                         -0.2293138              -6.2399
        49                         -0.2055624              -5.5936
        50                         -0.1961429              -5.3373
        51                         -0.1016627              -2.7664
       ...                                ...                  ...
        86                          0.6523831              17.7522
      -------------------------------------------------------------
                  HL-Gap            0.1441690 Eh            3.9230 eV
             Fermi-level           -0.3035065 Eh           -8.2588 eV

 SCC (total)                   0 d,  0 h,  0 min,  0.022 sec
 SCC setup                      ...        0 min,  0.000 sec (  0.453%)
 Dispersion                     ...        0 min,  0.000 sec (  0.788%)
 classical contributions        ...        0 min,  0.000 sec (  0.335%)
 integral evaluation            ...        0 min,  0.003 sec ( 12.199%)
 iterations                     ...        0 min,  0.008 sec ( 36.962%)
 molecular gradient             ...        0 min,  0.011 sec ( 48.748%)
 printout                       ...        0 min,  0.000 sec (  0.504%)

         :::::::::::::::::::::::::::::::::::::::::::::::::::::
         ::                     SUMMARY                     ::
         :::::::::::::::::::::::::::::::::::::::::::::::::::::
         :: total energy             -51.017234231441 Eh    ::
         :: gradient norm              0.022989557500 Eh/a0 ::
         :: HOMO-LUMO gap              3.923039146002 eV    ::
         ::.................................................::
         :: SCC energy               -51.736066238907 Eh    ::
         :: -> isotropic ES            0.078594006465 Eh    ::
         :: -> anisotropic ES          0.004555932844 Eh    ::
         :: -> anisotropic XC          0.021649770709 Eh    ::
         :: -> dispersion             -0.032447388716 Eh    ::
         :: repulsion energy           0.718559614865 Eh    ::
         :: add. restraining           0.000000000000 Eh    ::
         :: total charge              -0.000000000000 e     ::
         :::::::::::::::::::::::::::::::::::::::::::::::::::::


Property printout bound to 'properties.out'

           -------------------------------------------------
          | TOTAL ENERGY              -51.017234231441 Eh   |
          | GRADIENT NORM               0.022989557500 Eh/α |
          | HOMO-LUMO GAP               3.923039146002 eV   |
           -------------------------------------------------

------------------------------------------------------------------------
 * finished run on 2022/10/04 at 14:35:13.684     
------------------------------------------------------------------------
 total:
 * wall-time:     0 d,  0 h,  0 min,  0.039 sec
 *  cpu-time:     0 d,  0 h,  0 min,  0.027 sec
 * ratio c/w:     0.708 speedup
 SCF:
 * wall-time:     0 d,  0 h,  0 min,  0.022 sec
 *  cpu-time:     0 d,  0 h,  0 min,  0.021 sec
 * ratio c/w:     0.948 speedup


-------------------------   --------------------
FINAL SINGLE POINT ENERGY       -51.017234231440
-------------------------   --------------------

------------------------------------------------------------------------------
                         ORCA GEOMETRY RELAXATION STEP
------------------------------------------------------------------------------

Reading the OPT-File                    .... done
Getting information on internals        .... done
Copying old internal coords+grads       .... done
Making the new internal coordinates     .... (new redundants).... done
Validating the new internal coordinates .... (new redundants).... done
Calculating the B-matrix                .... done
Calculating the G,G- and P matrices     .... done
Transforming gradient to internals      .... done
Projecting the internal gradient        .... done
Number of atoms                         ....  35
Number of internal coordinates          .... 169
Current Energy                          ....   -51.017234231 Eh
Current gradient norm                   ....     0.022989557 Eh/bohr
Maximum allowed component of the step   ....  0.300
Current trust radius                    ....  0.300
Updating the Hessian (BFGS)             .... done
Forming the augmented Hessian           .... done
Diagonalizing the augmented Hessian     .... done
Last element of RFO vector              ....  0.965898343
Lowest eigenvalues of augmented Hessian:
 -0.002508072  0.009647558  0.011137946  0.011885727  0.015180555
Length of the computed step             ....  0.268062986
The final length of the internal step   ....  0.268062986
Converting the step to cartesian space:
 Initial RMS(Int)=    0.0206202297
Transforming coordinates:
 Iter   0:  RMS(Cart)=    0.1363604528 RMS(Int)=    1.1811313283
 Iter   1:  RMS(Cart)=    0.0059593300 RMS(Int)=    0.0024201454
 Iter   2:  RMS(Cart)=    0.0005142783 RMS(Int)=    0.0000964104
 Iter   3:  RMS(Cart)=    0.0000399499 RMS(Int)=    0.0000174494
 Iter   4:  RMS(Cart)=    0.0000038129 RMS(Int)=    0.0000010072
 Iter   5:  RMS(Cart)=    0.0000002903 RMS(Int)=    0.0000001413
 Iter   6:  RMS(Cart)=    0.0000000284 RMS(Int)=    0.0000000101
done
Storing new coordinates                 .... done

                                .--------------------.
          ----------------------|Geometry convergence|-------------------------
          Item                value                   Tolerance       Converged
          ---------------------------------------------------------------------
          Energy change      -0.0094979711            0.0000050000      NO
          RMS gradient        0.0015249074            0.0001000000      NO
          MAX gradient        0.0092958371            0.0003000000      NO
          RMS step            0.0206202297            0.0020000000      NO
          MAX step            0.1015506836            0.0040000000      NO
          ........................................................
          Max(Bonds)      0.0113      Max(Angles)    2.36
          Max(Dihed)        5.82      Max(Improp)    0.00
          ---------------------------------------------------------------------

The optimization has not yet converged - more geometry cycles are needed


    ---------------------------------------------------------------------------
                         Redundant Internal Coordinates
                            (Angstroem and degrees)

        Definition                    Value    dE/dq     Step     New-Value
    ----------------------------------------------------------------------------
     1. B(C   1,C   0)                1.5098 -0.001431  0.0022    1.5120   
     2. B(O   2,C   1)                1.2186  0.001929 -0.0021    1.2165   
     3. B(N   3,C   1)                1.3590  0.002026 -0.0041    1.3549   
     4. B(C   4,N   3)                1.4430  0.001001 -0.0032    1.4398   
     5. B(C   5,C   4)                1.5099 -0.001240  0.0013    1.5112   
     6. B(C   6,C   5)                1.3888  0.001959 -0.0033    1.3855   
     7. B(C   7,C   6)                1.3864  0.001326 -0.0023    1.3841   
     8. B(C   8,C   7)                1.3847  0.001075 -0.0017    1.3830   
     9. B(C   9,C   8)                1.3852  0.000094 -0.0006    1.3846   
    10. B(C  10,C   9)                1.3851  0.002232 -0.0034    1.3816   
    11. B(C  10,C   5)                1.3917  0.001541 -0.0028    1.3889   
    12. B(C  11,N   3)                1.4414  0.000228 -0.0022    1.4392   
    13. B(C  12,C  11)                1.5266 -0.001300  0.0013    1.5279   
    14. B(O  13,C  12)                1.2164  0.001528 -0.0023    1.2141   
    15. B(N  14,C  12)                1.3626  0.007036 -0.0113    1.3512   
    16. B(C  15,N  14)                1.4435  0.001552 -0.0033    1.4402   
    17. B(C  16,N  14)                1.4430 -0.000781  0.0003    1.4432   
    18. B(H  17,C   0)                1.0878  0.000387 -0.0013    1.0865   
    19. B(H  18,C   0)                1.0891  0.000745 -0.0017    1.0875   
    20. B(H  19,C   0)                1.0877 -0.000043 -0.0002    1.0875   
    21. B(H  20,C   4)                1.0958 -0.000212  0.0002    1.0960   
    22. B(H  21,C   4)                1.0913 -0.000082  0.0000    1.0913   
    23. B(H  22,C   6)                1.0809  0.000156 -0.0007    1.0801   
    24. B(H  23,C   7)                1.0799  0.000033 -0.0005    1.0793   
    25. B(H  24,C   8)                1.0802  0.000250 -0.0009    1.0793   
    26. B(H  25,C   9)                1.0799  0.000027 -0.0005    1.0793   
    27. B(H  26,C  10)                1.0811  0.000150 -0.0008    1.0803   
    28. B(H  27,C  11)                1.0953 -0.000175  0.0002    1.0955   
    29. B(H  28,C  11)                1.0942 -0.000064  0.0001    1.0943   
    30. B(H  29,C  15)                1.0827 -0.000104 -0.0003    1.0825   
    31. B(H  30,C  15)                1.0928 -0.000320  0.0005    1.0933   
    32. B(H  31,C  15)                1.0942 -0.000372  0.0007    1.0949   
    33. B(H  32,C  16)                1.0855 -0.000428  0.0003    1.0858   
    34. B(H  33,C  16)                1.0942  0.000085 -0.0002    1.0939   
    35. B(H  34,C  16)                1.0930  0.000165 -0.0004    1.0925   
    36. A(C   1,C   0,H  17)          108.22  0.001243   -0.23    107.99   
    37. A(C   1,C   0,H  19)          110.26 -0.000073   -0.10    110.16   
    38. A(H  18,C   0,H  19)          110.26  0.001038   -0.45    109.81   
    39. A(C   1,C   0,H  18)          111.25 -0.000544    0.16    111.41   
    40. A(H  17,C   0,H  19)          108.53 -0.000197   -0.03    108.50   
    41. A(H  17,C   0,H  18)          108.24 -0.001486    0.66    108.90   
    42. A(O   2,C   1,N   3)          121.35  0.001606   -0.31    121.05   
    43. A(C   0,C   1,N   3)          117.35  0.002044   -0.42    116.93   
    44. A(C   0,C   1,O   2)          121.25 -0.003651    0.73    121.98   
    45. A(C   1,N   3,C   4)          125.23 -0.001893    0.34    125.57   
    46. A(C   4,N   3,C  11)          117.36  0.002416   -0.47    116.89   
    47. A(C   1,N   3,C  11)          117.37 -0.000501    0.09    117.46   
    48. A(C   5,C   4,H  20)          109.15 -0.000690    0.25    109.40   
    49. A(N   3,C   4,H  20)          107.54 -0.000566    0.18    107.72   
    50. A(N   3,C   4,C   5)          113.83  0.001304   -0.26    113.58   
    51. A(H  20,C   4,H  21)          107.36  0.000945   -0.41    106.95   
    52. A(N   3,C   4,H  21)          109.77 -0.000320    0.03    109.81   
    53. A(C   5,C   4,H  21)          108.99 -0.000672    0.18    109.17   
    54. A(C   4,C   5,C   6)          122.65  0.001967   -0.39    122.26   
    55. A(C   6,C   5,C  10)          118.50 -0.001420    0.28    118.78   
    56. A(C   4,C   5,C  10)          118.85 -0.000547    0.11    118.96   
    57. A(C   5,C   6,C   7)          120.78  0.000841   -0.16    120.62   
    58. A(C   7,C   6,H  22)          118.68 -0.002112    0.45    119.13   
    59. A(C   5,C   6,H  22)          120.54  0.001272   -0.29    120.24   
    60. A(C   8,C   7,H  23)          120.03 -0.000229    0.05    120.08   
    61. A(C   6,C   7,H  23)          119.80  0.000394   -0.09    119.71   
    62. A(C   6,C   7,C   8)          120.17 -0.000165    0.04    120.21   
    63. A(C   9,C   8,H  24)          120.29  0.000090   -0.02    120.26   
    64. A(C   7,C   8,H  24)          120.12 -0.000241    0.05    120.16   
    65. A(C   7,C   8,C   9)          119.59  0.000151   -0.02    119.57   
    66. A(C   8,C   9,C  10)          120.06 -0.000027    0.01    120.07   
    67. A(C  10,C   9,H  25)          119.99  0.000426   -0.10    119.89   
    68. A(C   8,C   9,H  25)          119.95 -0.000400    0.09    120.04   
    69. A(C   5,C  10,C   9)          120.88  0.000613   -0.12    120.76   
[...]
   119. D(C   7,C   6,C   5,C  10)     -0.05 -0.000002   -0.00     -0.06   
   120. D(C   7,C   6,C   5,C   4)   -179.79  0.000000   -0.03   -179.82   
   121. D(H  22,C   6,C   5,C  10)   -179.51  0.000001   -0.03   -179.54   
   122. D(H  23,C   7,C   6,H  22)     -0.39 -0.000000    0.02     -0.37   
   123. D(C   8,C   7,C   6,H  22)    179.52 -0.000000    0.02    179.54   
   124. D(C   8,C   7,C   6,C   5)      0.05  0.000002   -0.01      0.05   
   125. D(H  23,C   7,C   6,C   5)   -179.85  0.000002   -0.00   -179.85   
   126. D(C   9,C   8,C   7,C   6)     -0.03 -0.000001    0.01     -0.03   
   127. D(H  24,C   8,C   7,H  23)     -0.05 -0.000000    0.00     -0.04   
   128. D(H  24,C   8,C   7,C   6)   -179.95 -0.000000    0.00   -179.95   
   129. D(C   9,C   8,C   7,H  23)    179.87 -0.000001    0.01    179.88   
   130. D(H  25,C   9,C   8,H  24)     -0.00 -0.000001   -0.01     -0.01   
   131. D(H  25,C   9,C   8,C   7)   -179.92 -0.000000   -0.01   -179.93   
   132. D(C  10,C   9,C   8,H  24)    179.93 -0.000001    0.00    179.93   
   133. D(C  10,C   9,C   8,C   7)      0.01 -0.000001   -0.00      0.01   
   134. D(H  26,C  10,C   9,H  25)     -0.04  0.000001    0.00     -0.04   
   135. D(H  26,C  10,C   9,C   8)   -179.98  0.000002   -0.00   -179.98   
   136. D(C   5,C  10,C   9,H  25)    179.92  0.000000    0.00    179.92   
   137. D(C   5,C  10,C   9,C   8)     -0.01  0.000001   -0.00     -0.02   
   138. D(H  26,C  10,C   5,C   6)    180.00 -0.000000    0.01    180.01   
   139. D(H  26,C  10,C   5,C   4)     -0.26 -0.000002    0.04     -0.22   
   140. D(C   9,C  10,C   5,C   6)      0.03  0.000000    0.01      0.04   
   141. D(C   9,C  10,C   5,C   4)    179.78 -0.000001    0.04    179.82   
   142. D(H  28,C  11,N   3,C   4)   -167.69  0.000002    0.09   -167.60   
   143. D(H  28,C  11,N   3,C   1)     11.44  0.000008   -0.12     11.31   
   144. D(H  27,C  11,N   3,C   4)    -48.95  0.000008    0.10    -48.85   
   145. D(H  27,C  11,N   3,C   1)    130.18  0.000014   -0.12    130.06   
   146. D(C  12,C  11,N   3,C   4)     72.54 -0.000039    0.07     72.61   
   147. D(C  12,C  11,N   3,C   1)   -108.33 -0.000033   -0.15   -108.48   
   148. D(N  14,C  12,C  11,H  28)     50.21 -0.000006   -0.09     50.11   
   149. D(N  14,C  12,C  11,H  27)    -70.30  0.000020   -0.08    -70.38   
   150. D(N  14,C  12,C  11,N   3)    167.93 -0.000016   -0.07    167.86   
   151. D(O  13,C  12,C  11,H  28)   -130.98  0.000013   -0.06   -131.04   
   152. D(O  13,C  12,C  11,H  27)    108.52  0.000040   -0.05    108.47   
   153. D(O  13,C  12,C  11,N   3)    -13.26  0.000004   -0.03    -13.29   
   154. D(C  16,N  14,C  12,O  13)      4.40 -0.000043   -0.15      4.25   
   155. D(C  16,N  14,C  12,C  11)   -176.80 -0.000027   -0.11   -176.91   
   156. D(C  15,N  14,C  12,O  13)    177.75 -0.000027    0.21    177.96   
   157. D(C  15,N  14,C  12,C  11)     -3.44 -0.000010    0.25     -3.20   
   158. D(H  29,C  15,N  14,C  12)     51.54 -0.000032    0.37     51.91   
   159. D(H  31,C  15,N  14,C  16)    -15.91  0.000025    0.74    -15.17   
   160. D(H  31,C  15,N  14,C  12)    170.59  0.000011    0.39    170.98   
   161. D(H  30,C  15,N  14,C  16)    103.47 -0.000012    0.74    104.21   
   162. D(H  30,C  15,N  14,C  12)    -70.03 -0.000026    0.39    -69.64   
   163. D(H  29,C  15,N  14,C  16)   -134.96 -0.000018    0.72   -134.24   
   164. D(H  34,C  16,N  14,C  15)    -58.42 -0.000032    0.16    -58.26   
   165. D(H  34,C  16,N  14,C  12)    115.40 -0.000012    0.50    115.90   
   166. D(H  33,C  16,N  14,C  15)     62.63 -0.000023    0.16     62.79   
   167. D(H  33,C  16,N  14,C  12)   -123.55 -0.000003    0.49   -123.06   
   168. D(H  32,C  16,N  14,C  15)   -177.84 -0.000029    0.17   -177.68   
   169. D(H  32,C  16,N  14,C  12)     -4.03 -0.000008    0.50     -3.53   
    ----------------------------------------------------------------------------
                 *******************************************************
                 *** FINAL ENERGY EVALUATION AT THE STATIONARY POINT ***
                 ***               (AFTER   26 CYCLES)               ***
                 *******************************************************
---------------------------------
CARTESIAN COORDINATES (ANGSTROEM)
---------------------------------
  C     1.466294    0.352360   -0.183288
  C     2.969424    0.443638   -0.058965
  O     3.713407    0.217310   -0.997117
  N     3.451167    0.806318    1.156440
  C     2.630873    1.132133    2.297358
  C     2.133288    2.560576    2.310297
  C     2.461715    3.468741    1.314029
  C     1.987680    4.769258    1.365617
  C     1.181567    5.176618    2.413213
  C     0.849526    4.275826    3.412156
  C     1.322488    2.978098    3.360128
  C     4.883411    0.897849    1.319225
  C     5.417246   -0.244622    2.184557
  O     4.678916   -0.953382    2.843102
  N     6.760150   -0.392790    2.183498
  C     7.655418    0.405724    1.380021
  C     7.349148   -1.489442    2.919994
  H     1.222037    0.167957   -1.225892
  H     0.988600    1.271949    0.145475
  H     1.094287   -0.477108    0.414985
  H     3.226718    0.948875    3.195889
  H     1.778499    0.449273    2.350778
  H     3.084326    3.161807    0.486085
  H     2.249819    5.464418    0.581530
  H     0.811986    6.190450    2.451802
  H     0.219617    4.585898    4.232929
  H     1.062843    2.275887    4.139561
  H     5.147712    1.858073    1.778011
  H     5.314649    0.838594    0.316188
  H     7.469712    1.470870    1.521898
  H     7.557371    0.171119    0.316036
  H     8.677761    0.193405    1.685935
  H     6.548135   -2.014049    3.436919
  H     8.068125   -1.113850    3.650896
  H     7.852464   -2.180340    2.240510

----------------------------
CARTESIAN COORDINATES (A.U.)
----------------------------
  NO LB    ZA    FRAG    MASS        X           Y           Z
   0 C   6.0000    0    12.011    2.770894    0.665865   -0.346363
   1 C   6.0000    0    12.011    5.611398    0.838354   -0.111428
   2 O   8.0000    0    15.999    7.017323    0.410657   -1.884279
   3 N   7.0000    0    14.007    6.521761    1.523721    2.185355
   4 C   6.0000    0    12.011    4.971629    2.139422    4.341377
   5 C   6.0000    0    12.011    4.031329    4.838787    4.365828
   6 C   6.0000    0    12.011    4.651966    6.554971    2.483154
   7 C   6.0000    0    12.011    3.756170    9.012591    2.580642
   8 C   6.0000    0    12.011    2.232837    9.782391    4.560311
   9 C   6.0000    0    12.011    1.605371    8.080141    6.448040
  10 C   6.0000    0    12.011    2.499140    5.627789    6.349722
  11 C   6.0000    0    12.011    9.228309    1.696689    2.492974
  12 C   6.0000    0    12.011   10.237112   -0.462269    4.128214
  13 O   8.0000    0    15.999    8.841870   -1.801632    5.372683
  14 N   7.0000    0    14.007   12.774832   -0.742266    4.126214
  15 C   6.0000    0    12.011   14.466643    0.766708    2.607861
  16 C   6.0000    0    12.011   13.887877   -2.814638    5.517988
  17 H   1.0000    0     1.008    2.309316    0.317392   -2.316600
  18 H   1.0000    0     1.008    1.868183    2.403635    0.274909
  19 H   1.0000    0     1.008    2.067903   -0.901603    0.784208
  20 H   1.0000    0     1.008    6.097614    1.793114    6.039354
  21 H   1.0000    0     1.008    3.360876    0.849003    4.442328
  22 H   1.0000    0     1.008    5.828532    5.974949    0.918567
  23 H   1.0000    0     1.008    4.251541   10.326254    1.098932
  24 H   1.0000    0     1.008    1.534432   11.698255    4.633234
  25 H   1.0000    0     1.008    0.415017    8.666091    7.999077
  26 H   1.0000    0     1.008    2.008483    4.300803    7.822636
  27 H   1.0000    0     1.008    9.727766    3.511249    3.359954
  28 H   1.0000    0     1.008   10.043231    1.584713    0.597508
  29 H   1.0000    0     1.008   14.115709    2.779542    2.875971
  30 H   1.0000    0     1.008   14.281361    0.323368    0.597222
  31 H   1.0000    0     1.008   16.398591    0.365482    3.185956
  32 H   1.0000    0     1.008   12.374183   -3.806001    6.494836
  33 H   1.0000    0     1.008   15.246547   -2.104872    6.899194
  34 H   1.0000    0     1.008   14.839007   -4.120245    4.233951

WARNING: MMTOPOL: Setting STACKSIZE soft limit to infinity failed!
      -----------------------------------------------------------      
     |                   =====================                   |     
     |                           x T B                           |     
     |                   =====================                   |     
     |                         S. Grimme                         |     
     |          Mulliken Center for Theoretical Chemistry        |     
     |                    University of Bonn                     |     
      -----------------------------------------------------------      

   * xtb version 6.5.1 (conda-forge) compiled by 'runner@Mac-1657629245115.local' on 2022-07-12

   xtb is free software: you can redistribute it and/or modify it under
   the terms of the GNU Lesser General Public License as published by
   the Free Software Foundation, either version 3 of the License, or
   (at your option) any later version.
   
   xtb is distributed in the hope that it will be useful,
   but WITHOUT ANY WARRANTY; without even the implied warranty of
   MERCHANTABILITY or FITNESS FOR A PARTICULAR PURPOSE.  See the
   GNU Lesser General Public License for more details.
   
   Cite this work as:
   * C. Bannwarth, E. Caldeweyher, S. Ehlert, A. Hansen, P. Pracht,
     J. Seibert, S. Spicher, S. Grimme, WIREs Comput. Mol. Sci., 2020, 11,
     e01493. DOI: 10.1002/wcms.1493
   
   for GFN2-xTB:
   * C. Bannwarth, S. Ehlert and S. Grimme., J. Chem. Theory Comput., 2019,
     15, 1652-1671. DOI: 10.1021/acs.jctc.8b01176
   for GFN1-xTB:
   * S. Grimme, C. Bannwarth, P. Shushkov, J. Chem. Theory Comput., 2017,
     13, 1989-2009. DOI: 10.1021/acs.jctc.7b00118
   for GFN0-xTB:
   * P. Pracht, E. Caldeweyher, S. Ehlert, S. Grimme, ChemRxiv, 2019, preprint.
     DOI: 10.26434/chemrxiv.8326202.v1
   for GFN-FF:
   * S. Spicher and S. Grimme, Angew. Chem. Int. Ed., 2020, 59, 15665-15673.
     DOI: 10.1002/anie.202004239
   
   for ALPB and GBSA implicit solvation:
   * S. Ehlert, M. Stahn, S. Spicher, S. Grimme, J. Chem. Theory Comput.,
     2021, 17, 4250-4261. DOI: 10.1021/acs.jctc.1c00471
   
   for DFT-D4:
   * E. Caldeweyher, C. Bannwarth and S. Grimme, J. Chem. Phys., 2017,
     147, 034112. DOI: 10.1063/1.4993215
   * E. Caldeweyher, S. Ehlert, A. Hansen, H. Neugebauer, S. Spicher,
     C. Bannwarth and S. Grimme, J. Chem. Phys., 2019, 150, 154122.
     DOI: 10.1063/1.5090222
   * E. Caldeweyher, J.-M. Mewes, S. Ehlert and S. Grimme, Phys. Chem. Chem. Phys.
     2020, 22, 8499-8512. DOI: 10.1039/D0CP00502A
   
   for sTDA-xTB:
   * S. Grimme and C. Bannwarth, J. Chem. Phys., 2016, 145, 054103.
     DOI: 10.1063/1.4959605
   
   in the mass-spec context:
   * V. Asgeirsson, C. Bauer and S. Grimme, Chem. Sci., 2017, 8, 4879.
     DOI: 10.1039/c7sc00601b
   * J. Koopman and S. Grimme, ACS Omega 2019, 4, 12, 15120-15133.
     DOI: 10.1021/acsomega.9b02011
   
   for metadynamics refer to:
   * S. Grimme, J. Chem. Theory Comput., 2019, 155, 2847-2862
     DOI: 10.1021/acs.jctc.9b00143
   
   for SPH calculations refer to:
   * S. Spicher and S. Grimme, J. Chem. Theory Comput., 2021, 17, 1701-1714
     DOI: 10.1021/acs.jctc.0c01306
   
   with help from (in alphabetical order)
   P. Atkinson, C. Bannwarth, F. Bohle, G. Brandenburg, E. Caldeweyher
   M. Checinski, S. Dohm, S. Ehlert, S. Ehrlich, I. Gerasimov, C. Hölzer
   A. Katbashev, J. Koopman, C. Lavigne, S. Lehtola, F. März, M. Müller,
   F. Musil, H. Neugebauer, J. Pisarek, C. Plett, P. Pracht, F. Pultar,
   J. Seibert, P. Shushkov, S. Spicher, M. Stahn, M. Steiner, T. Strunk,
   J. Stückrath, T. Rose, and J. Unsleber
   
 * started run on 2022/10/04 at 14:35:20.317     

           -------------------------------------------------
          |                Calculation Setup                |
           -------------------------------------------------

          program call               : xtb R20/xtb.orca_XTB.xyz --grad -c 0 -u 0 -P 1 --namespace R20/xtb.orca --input R20/xtb.orca_XTB.input.tmp --acc 1.000000
          calculation namespace      : R20/xtb.orca
          coordinate file            : R20/xtb.orca_XTB.xyz
          omp threads                :                     1

   ID    Z sym.   atoms
    1    6 C      1, 2, 5-13, 16, 17
    2    8 O      3, 14
    3    7 N      4, 15
    4    1 H      18-35

           -------------------------------------------------
          |                 G F N 2 - x T B                 |
           -------------------------------------------------

        Reference                      10.1021/acs.jctc.8b01176
      * Hamiltonian:
        H0-scaling (s, p, d)           1.850000    2.230000    2.230000
        zeta-weighting                 0.500000
      * Dispersion:
        s8                             2.700000
        a1                             0.520000
        a2                             5.000000
        s9                             5.000000
      * Repulsion:
        kExp                           1.500000    1.000000
        rExp                           1.000000
      * Coulomb:
        alpha                          2.000000
        third order                    shell-resolved
        anisotropic                    true
        a3                             3.000000
        a5                             4.000000
        cn-shift                       1.200000
        cn-exp                         4.000000
        max-rad                        5.000000

q/qsh data taken from xtbrestart
CAMM data taken from xtbrestart

          ...................................................
          :                      SETUP                      :
          :.................................................:
          :  # basis functions                  86          :
          :  # atomic orbitals                  86          :
          :  # shells                           52          :
          :  # electrons                        92          :
          :  max. iterations                   250          :
          :  Hamiltonian                  GFN2-xTB          :
          :  restarted?                       true          :
          :  GBSA solvation                  false          :
          :  PC potential                    false          :
          :  electronic temp.          300.0000000     K    :
          :  accuracy                    1.0000000          :
          :  -> integral cutoff          0.2500000E+02      :
          :  -> integral neglect         0.1000000E-07      :
          :  -> SCF convergence          0.1000000E-05 Eh   :
          :  -> wf. convergence          0.1000000E-03 e    :
          :  Broyden damping             0.4000000          :
          ...................................................

 iter      E             dE          RMSdq      gap      omega  full diag
   1    -51.7421595 -0.517422E+02  0.286E-02    4.02       0.0  T
   2    -51.7421596 -0.538755E-07  0.168E-02    4.02       1.0  T
   3    -51.7421596 -0.149548E-07  0.640E-04    4.02      26.4  T
   4    -51.7421596 -0.451854E-08  0.340E-04    4.02      49.7  T

   *** convergence criteria satisfied after 4 iterations ***

         #    Occupation            Energy/Eh            Energy/eV
      -------------------------------------------------------------
         1        2.0000           -0.6993417             -19.0301
       ...           ...                  ...                  ...
        40        2.0000           -0.4263709             -11.6021
        41        2.0000           -0.4091673             -11.1340
        42        2.0000           -0.4084493             -11.1145
        43        2.0000           -0.4009557             -10.9106
        44        2.0000           -0.3938238             -10.7165
        45        2.0000           -0.3844513             -10.4615
        46        2.0000           -0.3757304             -10.2241 (HOMO)
        47                         -0.2279446              -6.2027 (LUMO)
        48                         -0.2261276              -6.1532
        49                         -0.2072514              -5.6396
        50                         -0.1967688              -5.3544
        51                         -0.0978306              -2.6621
       ...                                ...                  ...
        86                          0.6587493              17.9255
      -------------------------------------------------------------
                  HL-Gap            0.1477858 Eh            4.0215 eV
             Fermi-level           -0.3018375 Eh           -8.2134 eV

 SCC (total)                   0 d,  0 h,  0 min,  0.019 sec
 SCC setup                      ...        0 min,  0.000 sec (  0.475%)
 Dispersion                     ...        0 min,  0.000 sec (  0.847%)
 classical contributions        ...        0 min,  0.000 sec (  0.377%)
 integral evaluation            ...        0 min,  0.003 sec ( 14.010%)
 iterations                     ...        0 min,  0.004 sec ( 19.290%)
 molecular gradient             ...        0 min,  0.012 sec ( 64.418%)
 printout                       ...        0 min,  0.000 sec (  0.553%)

         :::::::::::::::::::::::::::::::::::::::::::::::::::::
         ::                     SUMMARY                     ::
         :::::::::::::::::::::::::::::::::::::::::::::::::::::
         :: total energy             -51.020695598169 Eh    ::
         :: gradient norm              0.000634214694 Eh/a0 ::
         :: HOMO-LUMO gap              4.021457359374 eV    ::
         ::.................................................::
         :: SCC energy               -51.742159604362 Eh    ::
         :: -> isotropic ES            0.078589501167 Eh    ::
         :: -> anisotropic ES          0.003818516541 Eh    ::
         :: -> anisotropic XC          0.021648823777 Eh    ::
         :: -> dispersion             -0.032794150778 Eh    ::
         :: repulsion energy           0.721233113353 Eh    ::
         :: add. restraining           0.000000000000 Eh    ::
         :: total charge               0.000000000000 e     ::
         :::::::::::::::::::::::::::::::::::::::::::::::::::::


Property printout bound to 'properties.out'

           -------------------------------------------------
          | TOTAL ENERGY              -51.020695598169 Eh   |
          | GRADIENT NORM               0.000634214694 Eh/α |
          | HOMO-LUMO GAP               4.021457359374 eV   |
           -------------------------------------------------

------------------------------------------------------------------------
 * finished run on 2022/10/04 at 14:35:20.351     
------------------------------------------------------------------------
 total:
 * wall-time:     0 d,  0 h,  0 min,  0.033 sec
 *  cpu-time:     0 d,  0 h,  0 min,  0.024 sec
 * ratio c/w:     0.705 speedup
 SCF:
 * wall-time:     0 d,  0 h,  0 min,  0.019 sec
 *  cpu-time:     0 d,  0 h,  0 min,  0.017 sec
 * ratio c/w:     0.879 speedup


-------------------------   --------------------
FINAL SINGLE POINT ENERGY       -51.020695598170
-------------------------   --------------------

                                *** OPTIMIZATION RUN DONE ***

Timings for individual modules:

Sum of individual times         ...        4.381 sec (=   0.073 min)
Geometry relaxation             ...        2.832 sec (=   0.047 min)  64.6 %
XTB module                      ...        1.549 sec (=   0.026 min)  35.4 %
                             ****ORCA TERMINATED NORMALLY****
TOTAL RUN TIME: 0 days 0 hours 0 minutes 7 seconds 206 msec
