 Entering Gaussian System, Link 0=/data/opt/apps/g09-C01/g09
 Initial command:
 /data/opt/apps/g09-C01/l1.exe /tmp/g09-tuu61186-3956682a31f51e91bx/Gau-3956816.inp -scrdir=/tmp/g09-tuu61186-3956682a31f51e91bx/
 Entering Link 1 = /data/opt/apps/g09-C01/l1.exe PID=   3956824.
  
 Copyright (c) 1988,1990,1992,1993,1995,1998,2003,2009,2011,
            Gaussian, Inc.  All Rights Reserved.
  
 This is part of the Gaussian(R) 09 program.  It is based on
 the Gaussian(R) 03 system (copyright 2003, Gaussian, Inc.),
 the Gaussian(R) 98 system (copyright 1998, Gaussian, Inc.),
 the Gaussian(R) 94 system (copyright 1995, Gaussian, Inc.),
 the Gaussian 92(TM) system (copyright 1992, Gaussian, Inc.),
 the Gaussian 90(TM) system (copyright 1990, Gaussian, Inc.),
 the Gaussian 88(TM) system (copyright 1988, Gaussian, Inc.),
 the Gaussian 86(TM) system (copyright 1986, Carnegie Mellon
 University), and the Gaussian 82(TM) system (copyright 1983,
 Carnegie Mellon University). Gaussian is a federally registered
 trademark of Gaussian, Inc.
  
 This software contains proprietary and confidential information,
 including trade secrets, belonging to Gaussian, Inc.
  
 This software is provided under written license and may be
 used, copied, transmitted, or stored only in accord with that
 written license.
  
 The following legend is applicable only to US Government
 contracts under FAR:
  
                    RESTRICTED RIGHTS LEGEND
  
 Use, reproduction and disclosure by the US Government is
 subject to restrictions as set forth in subparagraphs (a)
 and (c) of the Commercial Computer Software - Restricted
 Rights clause in FAR 52.227-19.
  
 Gaussian, Inc.
 340 Quinnipiac St., Bldg. 40, Wallingford CT 06492
  
  
 ---------------------------------------------------------------
 Warning -- This program may not be used in any manner that
 competes with the business of Gaussian, Inc. or will provide
 assistance to any competitor of Gaussian, Inc.  The licensee
 of this program is prohibited from giving any competitor of
 Gaussian, Inc. access to this program.  By using this program,
 the user acknowledges that Gaussian, Inc. is engaged in the
 business of creating and licensing software in the field of
 computational chemistry and represents and warrants to the
 licensee that it is not a competitor of Gaussian, Inc. and that
 it will not use this program in any manner prohibited above.
 ---------------------------------------------------------------
  

 Cite this work as:
 Gaussian 09, Revision C.01,
 M. J. Frisch, G. W. Trucks, H. B. Schlegel, G. E. Scuseria, 
 M. A. Robb, J. R. Cheeseman, G. Scalmani, V. Barone, B. Mennucci, 
 G. A. Petersson, H. Nakatsuji, M. Caricato, X. Li, H. P. Hratchian, 
 A. F. Izmaylov, J. Bloino, G. Zheng, J. L. Sonnenberg, M. Hada, 
 M. Ehara, K. Toyota, R. Fukuda, J. Hasegawa, M. Ishida, T. Nakajima, 
 Y. Honda, O. Kitao, H. Nakai, T. Vreven, J. A. Montgomery, Jr., 
 J. E. Peralta, F. Ogliaro, M. Bearpark, J. J. Heyd, E. Brothers, 
 K. N. Kudin, V. N. Staroverov, T. Keith, R. Kobayashi, J. Normand, 
 K. Raghavachari, A. Rendell, J. C. Burant, S. S. Iyengar, J. Tomasi, 
 M. Cossi, N. Rega, J. M. Millam, M. Klene, J. E. Knox, J. B. Cross, 
 V. Bakken, C. Adamo, J. Jaramillo, R. Gomperts, R. E. Stratmann, 
 O. Yazyev, A. J. Austin, R. Cammi, C. Pomelli, J. W. Ochterski, 
 R. L. Martin, K. Morokuma, V. G. Zakrzewski, G. A. Voth, 
 P. Salvador, J. J. Dannenberg, S. Dapprich, A. D. Daniels, 
 O. Farkas, J. B. Foresman, J. V. Ortiz, J. Cioslowski, 
 and D. J. Fox, Gaussian, Inc., Wallingford CT, 2010.
 
 ******************************************
 Gaussian 09:  EM64L-G09RevC.01 23-Sep-2011
                19-Feb-2026 
 ******************************************
 %nprocshared=8
 Will use up to    8 processors via shared memory.
 %mem=14GB
 ------------------
 # b3lyp/6-31g(d,p)
 ------------------
 1/38=1/1;
 2/12=2,17=6,18=5,40=1/2;
 3/5=1,6=6,7=101,11=2,16=1,25=1,30=1,74=-5/1,2,3;
 4//1;
 5/5=2,38=5/2;
 6/7=2,8=2,9=2,10=2,28=1/1;
 99/5=1,9=1/99;
 -----------------
 Generated by mdgx
 -----------------
 Charge =  0 Multiplicity = 1
 Symbolic Z-Matrix:
 C                     12.26736   15.00764   17.01095 
 C                     13.78292   15.0192   16.82135 
 O                     14.49799   15.42498   17.72001 
 N                     14.33219   14.49645   15.62694 
 C                     13.55189   14.13149   14.4759 
 C                     13.45636   12.78052   14.0641 
 C                     12.58906   12.40541   13.02651 
 C                     11.77742   13.3692   12.40575 
 C                     11.828    14.70426   12.83863 
 C                     12.69515   15.0799   13.88071 
 F                     14.19484   11.82289   14.66941 
 C                     15.81289   14.38551   15.52089 
 C                     16.48116   15.64738   14.93748 
 O                     15.80899   16.53931   14.44516 
 N                     17.88847   15.72433   14.93926 
 C                     18.72247   14.69663   15.58947 
 C                     18.55476   16.91312   14.37612 
 H                     11.99605   15.15353   18.06212 
 H                     11.8319   14.09456   16.59077 
 H                     11.83555   15.80936   16.40491 
 H                     12.54429   11.36522   12.71865 
 H                     11.10309   13.08283   11.60156 
 H                     11.19267   15.44986   12.36666 
 H                     12.73465   16.11835   14.20144 
 H                     16.07811   13.54284   14.87284 
 H                     16.23857   14.1911   16.51249 
 H                     18.49426   13.71159   15.16388 
 H                     18.51712   14.68564   16.66709 
 H                     19.78768   14.90739   15.43386 
 H                     18.24849   17.04434   13.33073 
 H                     19.64546   16.80218   14.41387 
 H                     18.26619   17.80097   14.95251 
 
                          Input orientation:                          
 ---------------------------------------------------------------------
 Center     Atomic      Atomic             Coordinates (Angstroms)
 Number     Number       Type             X           Y           Z
 ---------------------------------------------------------------------
      1          6           0       12.267362   15.007643   17.010947
      2          6           0       13.782920   15.019202   16.821349
      3          8           0       14.497992   15.424984   17.720008
      4          7           0       14.332189   14.496449   15.626942
      5          6           0       13.551895   14.131494   14.475901
      6          6           0       13.456358   12.780521   14.064100
      7          6           0       12.589056   12.405407   13.026514
      8          6           0       11.777417   13.369204   12.405748
      9          6           0       11.828001   14.704263   12.838625
     10          6           0       12.695145   15.079897   13.880710
     11          9           0       14.194840   11.822890   14.669407
     12          6           0       15.812890   14.385510   15.520893
     13          6           0       16.481163   15.647384   14.937475
     14          8           0       15.808994   16.539311   14.445163
     15          7           0       17.888468   15.724332   14.939259
     16          6           0       18.722467   14.696633   15.589472
     17          6           0       18.554765   16.913122   14.376116
     18          1           0       11.996047   15.153533   18.062125
     19          1           0       11.831899   14.094561   16.590772
     20          1           0       11.835551   15.809363   16.404910
     21          1           0       12.544289   11.365215   12.718655
     22          1           0       11.103095   13.082834   11.601559
     23          1           0       11.192669   15.449858   12.366658
     24          1           0       12.734651   16.118349   14.201440
     25          1           0       16.078113   13.542838   14.872839
     26          1           0       16.238574   14.191101   16.512486
     27          1           0       18.494255   13.711585   15.163881
     28          1           0       18.517121   14.685636   16.667086
     29          1           0       19.787678   14.907387   15.433860
     30          1           0       18.248489   17.044340   13.330729
     31          1           0       19.645458   16.802182   14.413869
     32          1           0       18.266191   17.800972   14.952506
 ---------------------------------------------------------------------
                    Distance matrix (angstroms):
                    1          2          3          4          5
     1  C    0.000000
     2  C    1.527415   0.000000
     3  O    2.377530   1.218022   0.000000
     4  N    2.537775   1.414770   2.295777   0.000000
     5  C    2.973907   2.518437   3.618349   1.437688   0.000000
     6  C    3.880424   3.566616   4.630750   2.480718   1.415569
     7  C    4.769783   4.760042   5.898370   3.764731   2.450950
     8  C    4.912473   5.122701   6.314200   4.263054   2.831146
     9  C    4.206346   4.447806   5.610364   3.753512   2.445515
    10  C    3.160159   3.135967   4.255532   2.463666   1.409872
    11  F    4.397799   3.875170   4.730027   2.843178   2.404263
    12  C    3.895905   2.492695   2.765062   1.488633   2.503723
    13  C    4.739691   3.350240   3.424167   2.533398   3.330403
    14  O    4.633833   3.473034   3.699332   2.784032   3.300458
    15  N    6.033438   4.571105   4.395168   3.824621   4.643027
    16  C    6.617076   5.101048   4.787052   4.394998   5.319232
    17  C    7.078462   5.686528   5.463842   5.023447   5.725043
    18  H    1.095385   2.179560   2.539775   3.437941   4.040573
    19  H    1.095397   2.171315   3.186417   2.709601   2.726249
    20  H    1.093845   2.142434   2.994299   2.926120   3.079311
    21  H    5.636289   5.631867   6.731435   4.632424   3.428627
    22  H    5.858489   6.178769   7.378781   5.350614   3.918948
    23  H    4.787478   5.170990   6.291593   4.625476   3.428256
    24  H    3.057018   3.028351   3.996304   2.686027   2.165827
    25  H    4.608577   3.353245   3.761067   2.127509   2.624091
    26  H    4.084817   2.609863   2.451571   2.124084   3.371866
    27  H    6.623113   5.162726   5.043773   4.260661   5.007651
    28  H    6.267489   4.748445   4.220033   4.316404   5.455441
    29  H    7.684556   6.163988   5.785772   5.474350   6.356468
    30  H    7.312046   6.018880   5.996191   5.205933   5.643942
    31  H    8.025053   6.583641   6.270855   5.917666   6.653415
    32  H    6.930066   5.597369   5.244397   5.181805   5.993063
                    6          7          8          9         10
     6  C    0.000000
     7  C    1.403392   0.000000
     8  C    2.432185   1.404640   0.000000
     9  C    2.802520   2.428837   1.404395   0.000000
    10  C    2.429034   2.809591   2.438074   1.406762   0.000000
    11  F    1.352335   2.370014   3.655021   4.154035   3.671406
    12  C    3.201793   4.531648   5.198273   4.814094   3.590641
    13  C    4.258067   5.413935   5.807321   5.191008   3.971489
    14  O    4.450686   5.428603   5.519275   4.668690   3.484903
    15  N    5.392173   6.538932   7.022126   6.494803   5.339141
    16  C    5.807766   7.031159   7.754475   7.422996   6.276572
    17  C    6.570350   7.598066   7.897730   7.245156   6.159650
    18  H    4.873181   5.767255   5.935168   5.245477   4.240093
    19  H    3.278665   4.016275   4.247769   3.801363   3.010069
    20  H    4.156956   4.854714   4.685194   3.733589   2.764526
    21  H    2.155269   1.085717   2.168404   3.417119   3.895124
    22  H    3.419554   2.167369   1.087860   2.164453   3.423071
    23  H    3.889854   3.413794   2.161615   1.087342   2.164870
    24  H    3.417721   3.897126   3.420322   2.163081   1.087572
    25  H    2.847593   4.108063   4.961116   4.852874   3.845951
    26  H    3.965484   5.353475   6.119047   5.763137   4.502454
    27  H    5.239924   6.414500   7.269143   7.129598   6.094955
    28  H    6.001360   7.320872   8.081807   7.707255   6.466431
    29  H    6.818021   7.992207   8.700560   8.374542   7.262648
    30  H    6.456199   7.324031   7.499132   6.851335   5.916177
    31  H    7.389252   8.429068   8.816119   8.245925   7.180346
    32  H    7.009185   8.065446   8.260189   7.450395   6.292022
                   11         12         13         14         15
    11  F    0.000000
    12  C    3.148037   0.000000
    13  C    4.463843   1.542496   0.000000
    14  O    4.990031   2.407503   1.220539   0.000000
    15  N    5.379309   2.537473   1.409408   2.287473   0.000000
    16  C    5.440985   2.926967   2.520410   3.632248   1.474617
    17  C    6.708609   3.900925   2.493399   2.771960   1.474551
    18  H    5.238168   4.649302   5.488496   5.435196   6.693185
    19  H    3.799425   4.132503   5.173037   5.137872   6.485807
    20  H    4.946735   4.316025   4.874558   4.490176   6.228417
    21  H    2.596001   5.259132   6.225682   6.356917   7.245222
    22  H    4.534098   6.264209   6.828534   6.494521   8.009934
    23  H    5.241240   5.694601   5.883561   5.178566   7.178255
    24  H    4.560934   3.770841   3.847065   3.112586   5.221250
    25  H    2.558578   1.095634   2.143769   3.038780   2.835616
    26  H    3.630732   1.096476   2.158766   3.157920   2.747361
    27  H    4.721932   2.787715   2.801985   3.965251   2.113902
    28  H    5.555911   2.952406   2.839302   3.963207   2.111748
    29  H    6.432600   4.009847   3.424475   4.412553   2.125800
    30  H    6.744455   4.218808   2.767049   2.729131   2.111730
    31  H    7.387008   4.664159   3.408883   3.845586   2.127159
    32  H    7.238336   4.243481   2.797229   2.808381   2.110753
                   16         17         18         19         20
    16  C    0.000000
    17  C    2.532425   0.000000
    18  H    7.181051   7.726551   0.000000
    19  H    6.988921   7.618787   1.820232   0.000000
    20  H    7.023725   7.105078   1.789478   1.724849   0.000000
    21  H    7.583523   8.345794   6.573020   4.790629   5.817322
    22  H    8.750007   8.825909   6.842811   5.142664   5.571591
    23  H    8.225067   7.770426   5.759476   4.482030   4.104877
    24  H    6.308870   5.876725   4.047381   3.258771   2.399819
    25  H    2.972779   4.211811   5.424863   4.613679   5.048139
    26  H    2.697636   4.163918   4.618083   4.408428   4.692224
    27  H    1.097054   3.297586   7.259872   6.824199   7.090781
    28  H    1.097060   3.195568   6.685018   6.711736   6.780478
    29  H    1.096954   2.581059   8.226656   8.080443   8.061813
    30  H    3.292157   1.097204   8.065624   7.778285   7.218139
    31  H    2.582109   1.096970   8.633730   8.551130   8.120627
    32  H    3.201692   1.097168   7.482871   7.604046   6.886880
                   21         22         23         24         25
    21  H    0.000000
    22  H    2.505027   0.000000
    23  H    4.316838   2.489217   0.000000
    24  H    4.982687   4.316910   2.488175   0.000000
    25  H    4.676587   5.971908   5.812507   4.273496   0.000000
    26  H    6.002211   7.191566   6.650829   4.618733   1.770434
    27  H    6.847385   8.228896   8.009945   6.315999   2.439452
    28  H    7.892403   9.121202   8.527914   6.447405   3.236367
    29  H    8.507996   9.666308   9.142001   7.261575   3.992194
    30  H    8.072483   8.351061   7.297699   5.658446   4.398767
    31  H    9.102799   9.732143   8.801676   6.947805   4.853857
    32  H    8.896584   9.208671   7.889807   5.830373   4.788083
                   26         27         28         29         30
    26  H    0.000000
    27  H    2.671473   0.000000
    28  H    2.336716   1.791347   0.000000
    29  H    3.777914   1.782069   1.784470   0.000000
    30  H    4.722744   3.811574   4.094743   3.370286   0.000000
    31  H    4.777948   3.382243   3.290880   2.156584   1.784196
    32  H    4.424470   4.101191   3.564837   3.304460   1.789683
                   31         32
    31  H    0.000000
    32  H    1.786081   0.000000
 Stoichiometry    C12H15FN2O2
 Framework group  C1[X(C12H15FN2O2)]
 Deg. of freedom    90
 Full point group                 C1      NOp   1
 Largest Abelian subgroup         C1      NOp   1
 Largest concise Abelian subgroup C1      NOp   1
                         Standard orientation:                         
 ---------------------------------------------------------------------
 Center     Atomic      Atomic             Coordinates (Angstroms)
 Number     Number       Type             X           Y           Z
 ---------------------------------------------------------------------
      1          6           0       -1.571415    2.844941   -0.207996
      2          6           0       -0.247501    2.159948    0.125222
      3          8           0        0.750592    2.835136    0.302727
      4          7           0       -0.219728    0.754564    0.285532
      5          6           0       -1.318131   -0.113480   -0.041511
      6          6           0       -2.004115   -0.826732    0.970681
      7          6           0       -3.158921   -1.566035    0.671745
      8          6           0       -3.666981   -1.577310   -0.637744
      9          6           0       -3.022621   -0.834207   -1.640202
     10          6           0       -1.866746   -0.090668   -1.340064
     11          9           0       -1.562995   -0.802608    2.248821
     12          6           0        1.045742    0.122355    0.749131
     13          6           0        1.988356   -0.278228   -0.404257
     14          8           0        1.607707   -0.241902   -1.563353
     15          7           0        3.282727   -0.736232   -0.086031
     16          6           0        3.793553   -0.723969    1.297227
     17          6           0        4.200711   -1.138298   -1.167673
     18          1           0       -1.523130    3.921790   -0.013230
     19          1           0       -2.400501    2.362335    0.320779
     20          1           0       -1.795542    2.671910   -1.264558
     21          1           0       -3.659136   -2.116785    1.462466
     22          1           0       -4.562284   -2.148374   -0.873874
     23          1           0       -3.420487   -0.832972   -2.652137
     24          1           0       -1.369006    0.472948   -2.125815
     25          1           0        0.821492   -0.784675    1.321339
     26          1           0        1.579400    0.812693    1.413135
     27          1           0        3.122539   -1.302324    1.944354
     28          1           0        3.848224    0.310359    1.658773
     29          1           0        4.795076   -1.169038    1.343831
     30          1           0        3.738526   -1.935336   -1.763469
     31          1           0        5.148066   -1.508129   -0.756471
     32          1           0        4.404741   -0.275024   -1.813356
 ---------------------------------------------------------------------
 Rotational constants (GHZ):      0.6717378      0.2988427      0.2724847
 Standard basis: 6-31G(d,p) (6D, 7F)
 There are   330 symmetry adapted basis functions of A   symmetry.
 Integral buffers will be    131072 words long.
 Raffenetti 2 integral format.
 Two-electron integral symmetry is turned on.
   330 basis functions,   581 primitive gaussians,   330 cartesian basis functions
    63 alpha electrons       63 beta electrons
       nuclear repulsion energy      1230.0345778316 Hartrees.
 NAtoms=   32 NActive=   32 NUniq=   32 SFac= 1.00D+00 NAtFMM=   60 NAOKFM=F Big=F
 One-electron integrals computed using PRISM.
 NBasis=   330 RedAO= T  NBF=   330
 NBsUse=   330 1.00D-06 NBFU=   330
 Harris functional with IExCor=  402 diagonalized for initial guess.
 ExpMin= 1.61D-01 ExpMax= 7.00D+03 ExpMxC= 1.05D+03 IAcc=1 IRadAn=         1 AccDes= 0.00D+00
 HarFok:  IExCor=  402 AccDes= 0.00D+00 IRadAn=         1 IDoV= 1
 ScaDFX=  1.000000  1.000000  1.000000  1.000000
 FoFCou: FMM=F IPFlag=           0 FMFlag=      100000 FMFlg1=           0
         NFxFlg=           0 DoJE=T BraDBF=F KetDBF=T FulRan=T
         Omega=  0.000000  0.000000  1.000000  0.000000  0.000000 ICntrl=     500 IOpCl=  0
         NMat0=    1 NMatS0=    1 NMatT0=    0 NMatD0=    1 NMtDS0=    0 NMtDT0=    0
         I1Cent=           4 NGrid=           0.
 Petite list used in FoFCou.
 Initial guess orbital symmetries:
       Occupied  (A) (A) (A) (A) (A) (A) (A) (A) (A) (A) (A) (A)
                 (A) (A) (A) (A) (A) (A) (A) (A) (A) (A) (A) (A)
                 (A) (A) (A) (A) (A) (A) (A) (A) (A) (A) (A) (A)
                 (A) (A) (A) (A) (A) (A) (A) (A) (A) (A) (A) (A)
                 (A) (A) (A) (A) (A) (A) (A) (A) (A) (A) (A) (A)
                 (A) (A) (A)
       Virtual   (A) (A) (A) (A) (A) (A) (A) (A) (A) (A) (A) (A)
                 (A) (A) (A) (A) (A) (A) (A) (A) (A) (A) (A) (A)
                 (A) (A) (A) (A) (A) (A) (A) (A) (A) (A) (A) (A)
                 (A) (A) (A) (A) (A) (A) (A) (A) (A) (A) (A) (A)
                 (A) (A) (A) (A) (A) (A) (A) (A) (A) (A) (A) (A)
                 (A) (A) (A) (A) (A) (A) (A) (A) (A) (A) (A) (A)
                 (A) (A) (A) (A) (A) (A) (A) (A) (A) (A) (A) (A)
                 (A) (A) (A) (A) (A) (A) (A) (A) (A) (A) (A) (A)
                 (A) (A) (A) (A) (A) (A) (A) (A) (A) (A) (A) (A)
                 (A) (A) (A) (A) (A) (A) (A) (A) (A) (A) (A) (A)
                 (A) (A) (A) (A) (A) (A) (A) (A) (A) (A) (A) (A)
                 (A) (A) (A) (A) (A) (A) (A) (A) (A) (A) (A) (A)
                 (A) (A) (A) (A) (A) (A) (A) (A) (A) (A) (A) (A)
                 (A) (A) (A) (A) (A) (A) (A) (A) (A) (A) (A) (A)
                 (A) (A) (A) (A) (A) (A) (A) (A) (A) (A) (A) (A)
                 (A) (A) (A) (A) (A) (A) (A) (A) (A) (A) (A) (A)
                 (A) (A) (A) (A) (A) (A) (A) (A) (A) (A) (A) (A)
                 (A) (A) (A) (A) (A) (A) (A) (A) (A) (A) (A) (A)
                 (A) (A) (A) (A) (A) (A) (A) (A) (A) (A) (A) (A)
                 (A) (A) (A) (A) (A) (A) (A) (A) (A) (A) (A) (A)
                 (A) (A) (A) (A) (A) (A) (A) (A) (A) (A) (A) (A)
                 (A) (A) (A) (A) (A) (A) (A) (A) (A) (A) (A) (A)
                 (A) (A) (A)
 The electronic state of the initial guess is 1-A.
 Requested convergence on RMS density matrix=1.00D-08 within 128 cycles.
 Requested convergence on MAX density matrix=1.00D-06.
 Requested convergence on             energy=1.00D-06.
 No special actions if energy rises.
 Keep R1 ints in memory in canonical form, NReq=1510181636.
 Integral accuracy reduced to 1.0D-05 until final iterations.
 Initial convergence to 1.0D-05 achieved.  Increase integral accuracy.
 SCF Done:  E(RB3LYP) =  -826.123654598     A.U. after   15 cycles
             Convg  =    0.7811D-08             -V/T =  2.0098

 **********************************************************************

            Population analysis using the SCF density.

 **********************************************************************

 Orbital symmetries:
       Occupied  (A) (A) (A) (A) (A) (A) (A) (A) (A) (A) (A) (A)
                 (A) (A) (A) (A) (A) (A) (A) (A) (A) (A) (A) (A)
                 (A) (A) (A) (A) (A) (A) (A) (A) (A) (A) (A) (A)
                 (A) (A) (A) (A) (A) (A) (A) (A) (A) (A) (A) (A)
                 (A) (A) (A) (A) (A) (A) (A) (A) (A) (A) (A) (A)
                 (A) (A) (A)
       Virtual   (A) (A) (A) (A) (A) (A) (A) (A) (A) (A) (A) (A)
                 (A) (A) (A) (A) (A) (A) (A) (A) (A) (A) (A) (A)
                 (A) (A) (A) (A) (A) (A) (A) (A) (A) (A) (A) (A)
                 (A) (A) (A) (A) (A) (A) (A) (A) (A) (A) (A) (A)
                 (A) (A) (A) (A) (A) (A) (A) (A) (A) (A) (A) (A)
                 (A) (A) (A) (A) (A) (A) (A) (A) (A) (A) (A) (A)
                 (A) (A) (A) (A) (A) (A) (A) (A) (A) (A) (A) (A)
                 (A) (A) (A) (A) (A) (A) (A) (A) (A) (A) (A) (A)
                 (A) (A) (A) (A) (A) (A) (A) (A) (A) (A) (A) (A)
                 (A) (A) (A) (A) (A) (A) (A) (A) (A) (A) (A) (A)
                 (A) (A) (A) (A) (A) (A) (A) (A) (A) (A) (A) (A)
                 (A) (A) (A) (A) (A) (A) (A) (A) (A) (A) (A) (A)
                 (A) (A) (A) (A) (A) (A) (A) (A) (A) (A) (A) (A)
                 (A) (A) (A) (A) (A) (A) (A) (A) (A) (A) (A) (A)
                 (A) (A) (A) (A) (A) (A) (A) (A) (A) (A) (A) (A)
                 (A) (A) (A) (A) (A) (A) (A) (A) (A) (A) (A) (A)
                 (A) (A) (A) (A) (A) (A) (A) (A) (A) (A) (A) (A)
                 (A) (A) (A) (A) (A) (A) (A) (A) (A) (A) (A) (A)
                 (A) (A) (A) (A) (A) (A) (A) (A) (A) (A) (A) (A)
                 (A) (A) (A) (A) (A) (A) (A) (A) (A) (A) (A) (A)
                 (A) (A) (A) (A) (A) (A) (A) (A) (A) (A) (A) (A)
                 (A) (A) (A) (A) (A) (A) (A) (A) (A) (A) (A) (A)
                 (A) (A) (A)
 The electronic state is 1-A.
 Alpha  occ. eigenvalues --  -24.71871 -19.11157 -19.10706 -14.37115 -14.36019
 Alpha  occ. eigenvalues --  -10.28911 -10.28505 -10.28159 -10.24337 -10.23334
 Alpha  occ. eigenvalues --  -10.22809 -10.21638 -10.20793 -10.20698 -10.20531
 Alpha  occ. eigenvalues --  -10.20185 -10.18740  -1.22747  -1.03287  -1.02362
 Alpha  occ. eigenvalues --   -0.93292  -0.91670  -0.85421  -0.76426  -0.75233
 Alpha  occ. eigenvalues --   -0.74456  -0.72451  -0.70736  -0.66762  -0.63449
 Alpha  occ. eigenvalues --   -0.61941  -0.56818  -0.54898  -0.52923  -0.50625
 Alpha  occ. eigenvalues --   -0.50091  -0.48468  -0.48116  -0.47106  -0.46632
 Alpha  occ. eigenvalues --   -0.46427  -0.45286  -0.44527  -0.43263  -0.41922
 Alpha  occ. eigenvalues --   -0.41201  -0.41167  -0.40832  -0.39993  -0.39691
 Alpha  occ. eigenvalues --   -0.39411  -0.37973  -0.37623  -0.36277  -0.35991
 Alpha  occ. eigenvalues --   -0.34892  -0.34300  -0.28028  -0.25642  -0.24824
 Alpha  occ. eigenvalues --   -0.24350  -0.23223  -0.22873
 Alpha virt. eigenvalues --   -0.02242  -0.01014   0.03041   0.03105   0.07462
 Alpha virt. eigenvalues --    0.08057   0.10409   0.10946   0.11849   0.12533
 Alpha virt. eigenvalues --    0.13399   0.14012   0.14572   0.15093   0.15448
 Alpha virt. eigenvalues --    0.16177   0.16875   0.17203   0.18067   0.18246
 Alpha virt. eigenvalues --    0.20000   0.21059   0.21423   0.23239   0.23881
 Alpha virt. eigenvalues --    0.25565   0.27261   0.28776   0.30105   0.32206
 Alpha virt. eigenvalues --    0.33507   0.33875   0.35046   0.38209   0.38611
 Alpha virt. eigenvalues --    0.47080   0.48052   0.48525   0.49121   0.50315
 Alpha virt. eigenvalues --    0.50846   0.51722   0.52288   0.53530   0.54605
 Alpha virt. eigenvalues --    0.55163   0.55712   0.56258   0.57804   0.58725
 Alpha virt. eigenvalues --    0.59400   0.59717   0.60249   0.60702   0.61887
 Alpha virt. eigenvalues --    0.62540   0.63122   0.64606   0.65392   0.67488
 Alpha virt. eigenvalues --    0.68272   0.69789   0.70851   0.74066   0.74894
 Alpha virt. eigenvalues --    0.75454   0.78292   0.78705   0.80362   0.80591
 Alpha virt. eigenvalues --    0.81564   0.82126   0.82850   0.83434   0.84055
 Alpha virt. eigenvalues --    0.84642   0.86719   0.87148   0.87755   0.87915
 Alpha virt. eigenvalues --    0.88809   0.89572   0.89848   0.90701   0.91697
 Alpha virt. eigenvalues --    0.92654   0.93114   0.93626   0.95759   0.96089
 Alpha virt. eigenvalues --    0.98782   0.99146   0.99978   1.01305   1.01693
 Alpha virt. eigenvalues --    1.05053   1.07180   1.09180   1.11384   1.12632
 Alpha virt. eigenvalues --    1.13756   1.15618   1.17920   1.19344   1.21980
 Alpha virt. eigenvalues --    1.23902   1.24963   1.26190   1.28532   1.29312
 Alpha virt. eigenvalues --    1.32107   1.32998   1.35144   1.36257   1.37368
 Alpha virt. eigenvalues --    1.37591   1.38124   1.39817   1.40714   1.43286
 Alpha virt. eigenvalues --    1.44241   1.48906   1.50110   1.51298   1.56103
 Alpha virt. eigenvalues --    1.59480   1.61669   1.63547   1.65481   1.67182
 Alpha virt. eigenvalues --    1.69462   1.71721   1.72373   1.73646   1.74984
 Alpha virt. eigenvalues --    1.75912   1.78200   1.79463   1.80202   1.81509
 Alpha virt. eigenvalues --    1.82406   1.83209   1.84357   1.85891   1.86587
 Alpha virt. eigenvalues --    1.87388   1.88664   1.89797   1.90095   1.91390
 Alpha virt. eigenvalues --    1.92277   1.92570   1.93281   1.93994   1.95573
 Alpha virt. eigenvalues --    1.97353   1.98405   2.00274   2.01283   2.01991
 Alpha virt. eigenvalues --    2.02720   2.03353   2.03551   2.04287   2.05308
 Alpha virt. eigenvalues --    2.05596   2.06726   2.08540   2.10421   2.11599
 Alpha virt. eigenvalues --    2.12333   2.13865   2.14530   2.16261   2.19083
 Alpha virt. eigenvalues --    2.21034   2.24133   2.26801   2.27464   2.29193
 Alpha virt. eigenvalues --    2.29950   2.30305   2.31470   2.32614   2.35316
 Alpha virt. eigenvalues --    2.35512   2.36558   2.37367   2.38343   2.39282
 Alpha virt. eigenvalues --    2.40725   2.42175   2.45125   2.47168   2.48479
 Alpha virt. eigenvalues --    2.49620   2.50923   2.52078   2.53484   2.55324
 Alpha virt. eigenvalues --    2.56077   2.57191   2.58006   2.58749   2.60980
 Alpha virt. eigenvalues --    2.61814   2.63658   2.63753   2.64942   2.67645
 Alpha virt. eigenvalues --    2.69693   2.70201   2.71122   2.73141   2.75630
 Alpha virt. eigenvalues --    2.79339   2.79388   2.81695   2.82737   2.83627
 Alpha virt. eigenvalues --    2.86169   2.86738   2.88595   2.91125   2.95792
 Alpha virt. eigenvalues --    2.99520   3.00594   3.03565   3.06184   3.08629
 Alpha virt. eigenvalues --    3.09946   3.13577   3.14076   3.16591   3.17817
 Alpha virt. eigenvalues --    3.22604   3.23020   3.26109   3.32133   3.32677
 Alpha virt. eigenvalues --    3.35248   3.39842   3.41410   3.43095   3.44010
 Alpha virt. eigenvalues --    3.44451   3.44812   3.46101   3.48486   3.81533
 Alpha virt. eigenvalues --    3.96886   4.06977   4.09649   4.10779   4.13017
 Alpha virt. eigenvalues --    4.15945   4.20146   4.30979   4.37865   4.41778
 Alpha virt. eigenvalues --    4.47572   4.48310   4.51133   4.63667   4.72858
 Alpha virt. eigenvalues --    4.76658   5.55379
          Condensed to atoms (all electrons):
              1          2          3          4          5          6
     1  C    5.128349   0.357962  -0.081610  -0.110293  -0.000054  -0.000688
     2  C    0.357962   4.353071   0.591821   0.232863  -0.018041   0.000369
     3  O   -0.081610   0.591821   8.050585  -0.094368   0.002221  -0.000024
     4  N   -0.110293   0.232863  -0.094368   7.190996   0.226807  -0.064923
     5  C   -0.000054  -0.018041   0.002221   0.226807   4.939216   0.405994
     6  C   -0.000688   0.000369  -0.000024  -0.064923   0.405994   4.647903
     7  C   -0.000099   0.000101   0.000000   0.005982  -0.061559   0.464998
     8  C   -0.000027   0.000015   0.000000   0.000052  -0.030629  -0.014493
     9  C    0.000037  -0.000015  -0.000002   0.005279  -0.022514  -0.037467
    10  C   -0.000970  -0.005200  -0.000050  -0.056791   0.509864  -0.030672
    11  F    0.000006   0.000029   0.000000  -0.000521  -0.053382   0.307263
    12  C    0.005295  -0.028579   0.002937   0.283327  -0.033022  -0.005820
    13  C   -0.000114   0.001744   0.000601  -0.049668  -0.000556   0.000147
    14  O    0.000003   0.003373  -0.000516  -0.000949   0.002959   0.000077
    15  N    0.000000   0.000102  -0.000073   0.002190   0.000020  -0.000007
    16  C    0.000000  -0.000044  -0.000019   0.000119  -0.000001   0.000002
    17  C    0.000000  -0.000007   0.000001  -0.000066  -0.000002   0.000000
    18  H    0.371766  -0.020040   0.002666   0.003441   0.000315   0.000021
    19  H    0.356168  -0.022919   0.002590   0.001772   0.003695   0.000787
    20  H    0.365248  -0.024538   0.000564   0.002021  -0.001134  -0.000012
    21  H    0.000000  -0.000001   0.000000  -0.000107   0.005600  -0.031645
    22  H    0.000000   0.000000   0.000000   0.000002   0.000231   0.003813
    23  H    0.000009  -0.000007   0.000000  -0.000110   0.003720   0.000605
    24  H   -0.001918   0.001932  -0.000111  -0.004934  -0.032982   0.004240
    25  H   -0.000048   0.004224   0.000608  -0.034341  -0.003618   0.000559
    26  H    0.000564  -0.001947   0.014932  -0.033724   0.003388   0.000236
    27  H    0.000000  -0.000008   0.000001   0.000033   0.000006  -0.000004
    28  H    0.000000   0.000030  -0.000008   0.000037  -0.000003   0.000000
    29  H    0.000000   0.000000   0.000000  -0.000003   0.000000   0.000000
    30  H    0.000000  -0.000001   0.000000  -0.000002   0.000001   0.000000
    31  H    0.000000   0.000000   0.000000   0.000001   0.000000   0.000000
    32  H    0.000000   0.000003   0.000000   0.000001   0.000000   0.000000
              7          8          9         10         11         12
     1  C   -0.000099  -0.000027   0.000037  -0.000970   0.000006   0.005295
     2  C    0.000101   0.000015  -0.000015  -0.005200   0.000029  -0.028579
     3  O    0.000000   0.000000  -0.000002  -0.000050   0.000000   0.002937
     4  N    0.005982   0.000052   0.005279  -0.056791  -0.000521   0.283327
     5  C   -0.061559  -0.030629  -0.022514   0.509864  -0.053382  -0.033022
     6  C    0.464998  -0.014493  -0.037467  -0.030672   0.307263  -0.005820
     7  C    5.040560   0.487095  -0.030522  -0.040465  -0.046694   0.000029
     8  C    0.487095   4.835601   0.536007  -0.035770   0.002821   0.000004
     9  C   -0.030522   0.536007   4.848997   0.502854  -0.000101  -0.000115
    10  C   -0.040465  -0.035770   0.502854   4.904489   0.002671   0.001077
    11  F   -0.046694   0.002821  -0.000101   0.002671   9.069932  -0.000398
    12  C    0.000029   0.000004  -0.000115   0.001077  -0.000398   5.096024
    13  C    0.000020  -0.000001  -0.000012   0.000989   0.000143   0.288239
    14  O   -0.000004   0.000003   0.000010   0.000729   0.000000  -0.088506
    15  N    0.000000   0.000000   0.000000   0.000019   0.000000  -0.113421
    16  C    0.000000   0.000000   0.000000  -0.000001   0.000001   0.001613
    17  C    0.000000   0.000000   0.000000   0.000000   0.000000   0.005756
    18  H   -0.000002  -0.000001   0.000007   0.000254   0.000000  -0.000094
    19  H    0.000159   0.000003  -0.000251  -0.000903  -0.000012  -0.000164
    20  H   -0.000004   0.000011   0.000162   0.001918   0.000000  -0.000106
    21  H    0.357123  -0.038341   0.004615   0.000271  -0.000561  -0.000001
    22  H   -0.037311   0.371732  -0.038835   0.004687  -0.000019   0.000000
    23  H    0.004622  -0.040253   0.367119  -0.033666   0.000000   0.000001
    24  H    0.000147   0.004447  -0.034928   0.365480  -0.000016  -0.000404
    25  H   -0.000265  -0.000009   0.000025   0.000313   0.008005   0.362386
    26  H   -0.000001   0.000000   0.000004  -0.000130  -0.000077   0.361696
    27  H    0.000000   0.000000   0.000000   0.000000  -0.000005   0.002046
    28  H    0.000000   0.000000   0.000000   0.000000   0.000000   0.000476
    29  H    0.000000   0.000000   0.000000   0.000000   0.000000  -0.000139
    30  H    0.000000   0.000000   0.000000   0.000000   0.000000   0.000041
    31  H    0.000000   0.000000   0.000000   0.000000   0.000000  -0.000042
    32  H    0.000000   0.000000   0.000000   0.000000   0.000000  -0.000012
             13         14         15         16         17         18
     1  C   -0.000114   0.000003   0.000000   0.000000   0.000000   0.371766
     2  C    0.001744   0.003373   0.000102  -0.000044  -0.000007  -0.020040
     3  O    0.000601  -0.000516  -0.000073  -0.000019   0.000001   0.002666
     4  N   -0.049668  -0.000949   0.002190   0.000119  -0.000066   0.003441
     5  C   -0.000556   0.002959   0.000020  -0.000001  -0.000002   0.000315
     6  C    0.000147   0.000077  -0.000007   0.000002   0.000000   0.000021
     7  C    0.000020  -0.000004   0.000000   0.000000   0.000000  -0.000002
     8  C   -0.000001   0.000003   0.000000   0.000000   0.000000  -0.000001
     9  C   -0.000012   0.000010   0.000000   0.000000   0.000000   0.000007
    10  C    0.000989   0.000729   0.000019  -0.000001   0.000000   0.000254
    11  F    0.000143   0.000000   0.000000   0.000001   0.000000   0.000000
    12  C    0.288239  -0.088506  -0.113421   0.001613   0.005756  -0.000094
    13  C    4.441290   0.601294   0.253568  -0.025479  -0.019360   0.000000
    14  O    0.601294   8.060045  -0.101977   0.002777   0.009423   0.000000
    15  N    0.253568  -0.101977   7.094409   0.280266   0.278363   0.000000
    16  C   -0.025479   0.002777   0.280266   4.805026  -0.048360   0.000000
    17  C   -0.019360   0.009423   0.278363  -0.048360   4.772891   0.000000
    18  H    0.000000   0.000000   0.000000   0.000000   0.000000   0.543353
    19  H    0.000011   0.000001   0.000000   0.000000   0.000000  -0.022535
    20  H   -0.000003   0.000004   0.000000   0.000000   0.000000  -0.021427
    21  H    0.000000   0.000000   0.000000   0.000000   0.000000   0.000000
    22  H    0.000000   0.000000   0.000000   0.000000   0.000000   0.000000
    23  H    0.000000  -0.000001   0.000000   0.000000   0.000000   0.000000
    24  H    0.000213   0.003606   0.000013   0.000000  -0.000001   0.000042
    25  H   -0.036715   0.000471   0.002163  -0.000901  -0.000186   0.000002
    26  H   -0.033747   0.001575   0.001676   0.001672  -0.000203  -0.000012
    27  H   -0.006210   0.000033  -0.043238   0.385487   0.003449   0.000000
    28  H   -0.004219   0.000056  -0.047254   0.388047   0.003005   0.000000
    29  H    0.002186  -0.000078  -0.025770   0.385491  -0.007675   0.000000
    30  H   -0.003660   0.004994  -0.042244   0.003621   0.390225   0.000000
    31  H    0.004467   0.000574  -0.030584  -0.007462   0.378342   0.000000
    32  H   -0.004367   0.003638  -0.045208   0.003131   0.392599   0.000000
             19         20         21         22         23         24
     1  C    0.356168   0.365248   0.000000   0.000000   0.000009  -0.001918
     2  C   -0.022919  -0.024538  -0.000001   0.000000  -0.000007   0.001932
     3  O    0.002590   0.000564   0.000000   0.000000   0.000000  -0.000111
     4  N    0.001772   0.002021  -0.000107   0.000002  -0.000110  -0.004934
     5  C    0.003695  -0.001134   0.005600   0.000231   0.003720  -0.032982
     6  C    0.000787  -0.000012  -0.031645   0.003813   0.000605   0.004240
     7  C    0.000159  -0.000004   0.357123  -0.037311   0.004622   0.000147
     8  C    0.000003   0.000011  -0.038341   0.371732  -0.040253   0.004447
     9  C   -0.000251   0.000162   0.004615  -0.038835   0.367119  -0.034928
    10  C   -0.000903   0.001918   0.000271   0.004687  -0.033666   0.365480
    11  F   -0.000012   0.000000  -0.000561  -0.000019   0.000000  -0.000016
    12  C   -0.000164  -0.000106  -0.000001   0.000000   0.000001  -0.000404
    13  C    0.000011  -0.000003   0.000000   0.000000   0.000000   0.000213
    14  O    0.000001   0.000004   0.000000   0.000000  -0.000001   0.003606
    15  N    0.000000   0.000000   0.000000   0.000000   0.000000   0.000013
    16  C    0.000000   0.000000   0.000000   0.000000   0.000000   0.000000
    17  C    0.000000   0.000000   0.000000   0.000000   0.000000  -0.000001
    18  H   -0.022535  -0.021427   0.000000   0.000000   0.000000   0.000042
    19  H    0.585641  -0.031791   0.000004   0.000000  -0.000004  -0.000025
    20  H   -0.031791   0.572724   0.000000   0.000000   0.000007   0.001932
    21  H    0.000004   0.000000   0.604155  -0.006134  -0.000169   0.000011
    22  H    0.000000   0.000000  -0.006134   0.609127  -0.005489  -0.000165
    23  H   -0.000004   0.000007  -0.000169  -0.005489   0.612809  -0.005400
    24  H   -0.000025   0.001932   0.000011  -0.000165  -0.005400   0.571136
    25  H   -0.000011  -0.000004   0.000007   0.000000   0.000000   0.000029
    26  H   -0.000054  -0.000010   0.000000   0.000000   0.000000  -0.000001
    27  H    0.000000   0.000000   0.000000   0.000000   0.000000   0.000000
    28  H    0.000000   0.000000   0.000000   0.000000   0.000000   0.000000
    29  H    0.000000   0.000000   0.000000   0.000000   0.000000   0.000000
    30  H    0.000000   0.000000   0.000000   0.000000   0.000000   0.000000
    31  H    0.000000   0.000000   0.000000   0.000000   0.000000   0.000000
    32  H    0.000000   0.000000   0.000000   0.000000   0.000000   0.000000
             25         26         27         28         29         30
     1  C   -0.000048   0.000564   0.000000   0.000000   0.000000   0.000000
     2  C    0.004224  -0.001947  -0.000008   0.000030   0.000000  -0.000001
     3  O    0.000608   0.014932   0.000001  -0.000008   0.000000   0.000000
     4  N   -0.034341  -0.033724   0.000033   0.000037  -0.000003  -0.000002
     5  C   -0.003618   0.003388   0.000006  -0.000003   0.000000   0.000001
     6  C    0.000559   0.000236  -0.000004   0.000000   0.000000   0.000000
     7  C   -0.000265  -0.000001   0.000000   0.000000   0.000000   0.000000
     8  C   -0.000009   0.000000   0.000000   0.000000   0.000000   0.000000
     9  C    0.000025   0.000004   0.000000   0.000000   0.000000   0.000000
    10  C    0.000313  -0.000130   0.000000   0.000000   0.000000   0.000000
    11  F    0.008005  -0.000077  -0.000005   0.000000   0.000000   0.000000
    12  C    0.362386   0.361696   0.002046   0.000476  -0.000139   0.000041
    13  C   -0.036715  -0.033747  -0.006210  -0.004219   0.002186  -0.003660
    14  O    0.000471   0.001575   0.000033   0.000056  -0.000078   0.004994
    15  N    0.002163   0.001676  -0.043238  -0.047254  -0.025770  -0.042244
    16  C   -0.000901   0.001672   0.385487   0.388047   0.385491   0.003621
    17  C   -0.000186  -0.000203   0.003449   0.003005  -0.007675   0.390225
    18  H    0.000002  -0.000012   0.000000   0.000000   0.000000   0.000000
    19  H   -0.000011  -0.000054   0.000000   0.000000   0.000000   0.000000
    20  H   -0.000004  -0.000010   0.000000   0.000000   0.000000   0.000000
    21  H    0.000007   0.000000   0.000000   0.000000   0.000000   0.000000
    22  H    0.000000   0.000000   0.000000   0.000000   0.000000   0.000000
    23  H    0.000000   0.000000   0.000000   0.000000   0.000000   0.000000
    24  H    0.000029  -0.000001   0.000000   0.000000   0.000000   0.000000
    25  H    0.583314  -0.023884   0.002766  -0.000401   0.000014   0.000011
    26  H   -0.023884   0.557175  -0.001177   0.002484   0.000117  -0.000008
    27  H    0.002766  -0.001177   0.605626  -0.043142  -0.026933   0.000042
    28  H   -0.000401   0.002484  -0.043142   0.597041  -0.029892  -0.000307
    29  H    0.000014   0.000117  -0.026933  -0.029892   0.578494   0.000344
    30  H    0.000011  -0.000008   0.000042  -0.000307   0.000344   0.580011
    31  H    0.000002  -0.000004   0.000342   0.000109   0.004246  -0.030501
    32  H   -0.000009   0.000002  -0.000300   0.000491   0.000015  -0.037042
             31         32
     1  C    0.000000   0.000000
     2  C    0.000000   0.000003
     3  O    0.000000   0.000000
     4  N    0.000001   0.000001
     5  C    0.000000   0.000000
     6  C    0.000000   0.000000
     7  C    0.000000   0.000000
     8  C    0.000000   0.000000
     9  C    0.000000   0.000000
    10  C    0.000000   0.000000
    11  F    0.000000   0.000000
    12  C   -0.000042  -0.000012
    13  C    0.004467  -0.004367
    14  O    0.000574   0.003638
    15  N   -0.030584  -0.045208
    16  C   -0.007462   0.003131
    17  C    0.378342   0.392599
    18  H    0.000000   0.000000
    19  H    0.000000   0.000000
    20  H    0.000000   0.000000
    21  H    0.000000   0.000000
    22  H    0.000000   0.000000
    23  H    0.000000   0.000000
    24  H    0.000000   0.000000
    25  H    0.000002  -0.000009
    26  H   -0.000004   0.000002
    27  H    0.000342  -0.000300
    28  H    0.000109   0.000491
    29  H    0.004246   0.000015
    30  H   -0.030501  -0.037042
    31  H    0.610554  -0.033089
    32  H   -0.033089   0.584858
 Mulliken atomic charges:
              1
     1  C   -0.389585
     2  C    0.573706
     3  O   -0.492748
     4  N   -0.504122
     5  C    0.153459
     6  C    0.348739
     7  C   -0.143909
     8  C   -0.078266
     9  C   -0.100353
    10  C   -0.090999
    11  F   -0.289085
    12  C   -0.140123
    13  C    0.589199
    14  O   -0.503613
    15  N   -0.463012
    16  C   -0.174986
    17  C   -0.158194
    18  H    0.142243
    19  H    0.127837
    20  H    0.134436
    21  H    0.105173
    22  H    0.098360
    23  H    0.096206
    24  H    0.127659
    25  H    0.135492
    26  H    0.149457
    27  H    0.121185
    28  H    0.133449
    29  H    0.119583
    30  H    0.134476
    31  H    0.103047
    32  H    0.135289
 Sum of Mulliken atomic charges =   0.00000
 Mulliken charges with hydrogens summed into heavy atoms:
              1
     1  C    0.014931
     2  C    0.573706
     3  O   -0.492748
     4  N   -0.504122
     5  C    0.153459
     6  C    0.348739
     7  C   -0.038736
     8  C    0.020094
     9  C   -0.004148
    10  C    0.036660
    11  F   -0.289085
    12  C    0.144826
    13  C    0.589199
    14  O   -0.503613
    15  N   -0.463012
    16  C    0.199231
    17  C    0.214618
 Sum of Mulliken charges with hydrogens summed into heavy atoms =   0.00000
 Electronic spatial extent (au):  <R**2>=           4479.7707
 Charge=              0.0000 electrons
 Dipole moment (field-independent basis, Debye):
    X=             -0.5713    Y=             -2.7844    Z=              1.1056  Tot=              3.0499
 Quadrupole moment (field-independent basis, Debye-Ang):
   XX=            -76.8530   YY=           -102.5507   ZZ=            -98.8803
   XY=             -5.9301   XZ=              7.6374   YZ=             -2.7558
 Traceless Quadrupole moment (field-independent basis, Debye-Ang):
   XX=             15.9083   YY=             -9.7894   ZZ=             -6.1190
   XY=             -5.9301   XZ=              7.6374   YZ=             -2.7558
 Octapole moment (field-independent basis, Debye-Ang**2):
  XXX=             54.4835  YYY=            -16.2283  ZZZ=              7.9971  XYY=            -19.4610
  XXY=            -37.7908  XXZ=              4.1796  XZZ=             -2.6462  YZZ=              1.6164
  YYZ=              1.3677  XYZ=             -0.2643
 Hexadecapole moment (field-independent basis, Debye-Ang**3):
 XXXX=          -3368.2307 YYYY=          -1311.9315 ZZZZ=           -780.7549 XXXY=             15.7814
 XXXZ=             -4.7928 YYYX=            -51.5901 YYYZ=            -27.7590 ZZZX=              9.1779
 ZZZY=            -11.1944 XXYY=           -786.2782 XXZZ=           -713.2186 YYZZ=           -332.7567
 XXYZ=              1.4099 YYXZ=            -23.0705 ZZXY=              4.7577
 N-N= 1.230034577832D+03 E-N=-4.387449372255D+03  KE= 8.181243009597D+02
 1\1\GINC-C01\SP\RB3LYP\6-31G(d,p)\C12H15F1N2O2\TUU61186\19-Feb-2026\0\
 \# b3lyp/6-31g(d,p)\\Generated by mdgx\\0,1\C,0,12.2673619,15.0076432,
 17.0109473\C,0,13.7829197,15.0192016,16.8213485\O,0,14.497992,15.42498
 42,17.7200079\N,0,14.3321893,14.4964493,15.6269416\C,0,13.5518949,14.1
 314941,14.4759005\C,0,13.4563579,12.780521,14.0641001\C,0,12.5890563,1
 2.4054068,13.0265137\C,0,11.7774171,13.3692042,12.4057479\C,0,11.82800
 12,14.7042634,12.8386251\C,0,12.695145,15.0798965,13.8807103\F,0,14.19
 48403,11.8228895,14.6694073\C,0,15.8128896,14.3855099,15.5208927\C,0,1
 6.481163,15.6473844,14.9374752\O,0,15.8089937,16.5393112,14.4451629\N,
 0,17.8884681,15.7243324,14.9392585\C,0,18.7224665,14.6966332,15.589471
 6\C,0,18.5547649,16.913122,14.3761159\H,0,11.996047,15.1535327,18.0621
 245\H,0,11.8318986,14.0945608,16.5907723\H,0,11.8355505,15.8093626,16.
 4049096\H,0,12.5442891,11.365215,12.7186545\H,0,11.1030946,13.0828343,
 11.6015587\H,0,11.1926686,15.4498581,12.3666577\H,0,12.7346511,16.1183
 49,14.2014403\H,0,16.0781129,13.5428378,14.8728389\H,0,16.2385744,14.1
 911012,16.5124863\H,0,18.4942553,13.7115854,15.1638807\H,0,18.5171212,
 14.685636,16.6670856\H,0,19.7876776,14.9073871,15.4338596\H,0,18.24848
 91,17.0443395,13.3307288\H,0,19.6454575,16.802182,14.4138694\H,0,18.26
 61908,17.8009715,14.952506\\Version=EM64L-G09RevC.01\State=1-A\HF=-826
 .1236546\RMSD=7.811e-09\Dipole=0.2915661,-0.774046,-0.8692684\Quadrupo
 le=14.2561098,-6.1349407,-8.1211691,0.5433733,2.9911389,0.0263827\PG=C
 01 [X(C12H15F1N2O2)]\\@


 BE NOT THE FIRST BY WHOM THE NEW ARE TRIED,
 NOR YET THE THE LAST TO LAY THE OLD ASIDE.

                          -- ALEXANDER POPE
 Job cpu time:  0 days  0 hours  3 minutes 34.2 seconds.
 File lengths (MBytes):  RWF=     48 Int=      0 D2E=      0 Chk=      5 Scr=      1
 Normal termination of Gaussian 09 at Thu Feb 19 03:42:43 2026.
