 Entering Gaussian System, Link 0=/data/opt/apps/g09-C01/g09
 Initial command:
 /data/opt/apps/g09-C01/l1.exe /tmp/g09-tuu61186-396657123198f145x/Gau-396708.inp -scrdir=/tmp/g09-tuu61186-396657123198f145x/
 Entering Link 1 = /data/opt/apps/g09-C01/l1.exe PID=    396711.
  
 Copyright (c) 1988,1990,1992,1993,1995,1998,2003,2009,2011,
            Gaussian, Inc.  All Rights Reserved.
  
 This is part of the Gaussian(R) 09 program.  It is based on
 the Gaussian(R) 03 system (copyright 2003, Gaussian, Inc.),
 the Gaussian(R) 98 system (copyright 1998, Gaussian, Inc.),
 the Gaussian(R) 94 system (copyright 1995, Gaussian, Inc.),
 the Gaussian 92(TM) system (copyright 1992, Gaussian, Inc.),
 the Gaussian 90(TM) system (copyright 1990, Gaussian, Inc.),
 the Gaussian 88(TM) system (copyright 1988, Gaussian, Inc.),
 the Gaussian 86(TM) system (copyright 1986, Carnegie Mellon
 University), and the Gaussian 82(TM) system (copyright 1983,
 Carnegie Mellon University). Gaussian is a federally registered
 trademark of Gaussian, Inc.
  
 This software contains proprietary and confidential information,
 including trade secrets, belonging to Gaussian, Inc.
  
 This software is provided under written license and may be
 used, copied, transmitted, or stored only in accord with that
 written license.
  
 The following legend is applicable only to US Government
 contracts under FAR:
  
                    RESTRICTED RIGHTS LEGEND
  
 Use, reproduction and disclosure by the US Government is
 subject to restrictions as set forth in subparagraphs (a)
 and (c) of the Commercial Computer Software - Restricted
 Rights clause in FAR 52.227-19.
  
 Gaussian, Inc.
 340 Quinnipiac St., Bldg. 40, Wallingford CT 06492
  
  
 ---------------------------------------------------------------
 Warning -- This program may not be used in any manner that
 competes with the business of Gaussian, Inc. or will provide
 assistance to any competitor of Gaussian, Inc.  The licensee
 of this program is prohibited from giving any competitor of
 Gaussian, Inc. access to this program.  By using this program,
 the user acknowledges that Gaussian, Inc. is engaged in the
 business of creating and licensing software in the field of
 computational chemistry and represents and warrants to the
 licensee that it is not a competitor of Gaussian, Inc. and that
 it will not use this program in any manner prohibited above.
 ---------------------------------------------------------------
  

 Cite this work as:
 Gaussian 09, Revision C.01,
 M. J. Frisch, G. W. Trucks, H. B. Schlegel, G. E. Scuseria, 
 M. A. Robb, J. R. Cheeseman, G. Scalmani, V. Barone, B. Mennucci, 
 G. A. Petersson, H. Nakatsuji, M. Caricato, X. Li, H. P. Hratchian, 
 A. F. Izmaylov, J. Bloino, G. Zheng, J. L. Sonnenberg, M. Hada, 
 M. Ehara, K. Toyota, R. Fukuda, J. Hasegawa, M. Ishida, T. Nakajima, 
 Y. Honda, O. Kitao, H. Nakai, T. Vreven, J. A. Montgomery, Jr., 
 J. E. Peralta, F. Ogliaro, M. Bearpark, J. J. Heyd, E. Brothers, 
 K. N. Kudin, V. N. Staroverov, T. Keith, R. Kobayashi, J. Normand, 
 K. Raghavachari, A. Rendell, J. C. Burant, S. S. Iyengar, J. Tomasi, 
 M. Cossi, N. Rega, J. M. Millam, M. Klene, J. E. Knox, J. B. Cross, 
 V. Bakken, C. Adamo, J. Jaramillo, R. Gomperts, R. E. Stratmann, 
 O. Yazyev, A. J. Austin, R. Cammi, C. Pomelli, J. W. Ochterski, 
 R. L. Martin, K. Morokuma, V. G. Zakrzewski, G. A. Voth, 
 P. Salvador, J. J. Dannenberg, S. Dapprich, A. D. Daniels, 
 O. Farkas, J. B. Foresman, J. V. Ortiz, J. Cioslowski, 
 and D. J. Fox, Gaussian, Inc., Wallingford CT, 2010.
 
 ******************************************
 Gaussian 09:  EM64L-G09RevC.01 23-Sep-2011
                19-Mar-2026 
 ******************************************
 %nprocshared=8
 Will use up to    8 processors via shared memory.
 %mem=14GB
 ------------------
 # b3lyp/6-31g(d,p)
 ------------------
 1/38=1/1;
 2/12=2,17=6,18=5,40=1/2;
 3/5=1,6=6,7=101,11=2,16=1,25=1,30=1,74=-5/1,2,3;
 4//1;
 5/5=2,38=5/2;
 6/7=2,8=2,9=2,10=2,28=1/1;
 99/5=1,9=1/99;
 -----------------
 Generated by mdgx
 -----------------
 Charge =  0 Multiplicity = 1
 Symbolic Z-Matrix:
 C                     13.3347   19.53397   16.41655 
 N                     12.8427   18.18968   16.05167 
 C                     11.91958   17.51935   16.99176 
 C                     13.19326   17.61165   14.8061 
 O                     13.88474   18.22007   14.00435 
 C                     12.6903   16.17645   14.51168 
 N                     13.2922   15.46085   13.36081 
 C                     12.86219   15.96365   12.04487 
 C                     14.74858   15.22232   13.45524 
 C                     15.17377   14.5103   14.73481 
 C                     14.93674   13.12823   14.8673 
 C                     15.31012   12.44794   16.03861 
 C                     15.92581   13.14352   17.09095 
 C                     16.16974   14.52076   16.97066 
 C                     15.79734   15.20137   15.79813 
 F                     16.04375   16.52747   15.70539 
 H                     13.17926   19.72357   17.4859 
 H                     12.79514   20.29009   15.8329 
 H                     14.40792   19.60637   16.19987 
 H                     11.62537   18.2052   17.79592 
 H                     12.41574   16.6458   17.43254 
 H                     11.0156   17.19773   16.45995 
 H                     11.60358   16.2363   14.37225 
 H                     12.84999   15.57843   15.417 
 H                     11.76818   16.03382   12.00015 
 H                     13.19222   15.28195   11.25111 
 H                     13.28419   16.95566   11.84381 
 H                     15.29327   16.16864   13.35984 
 H                     15.06252   14.59735   12.61007 
 H                     14.45689   12.5798   14.06134 
 H                     15.12064   11.38246   16.13032 
 H                     16.21313   12.61664   17.99628 
 H                     16.64675   15.05711   17.78576 
 
                          Input orientation:                          
 ---------------------------------------------------------------------
 Center     Atomic      Atomic             Coordinates (Angstroms)
 Number     Number       Type             X           Y           Z
 ---------------------------------------------------------------------
      1          6           0       13.334704   19.533975   16.416546
      2          7           0       12.842704   18.189683   16.051669
      3          6           0       11.919580   17.519351   16.991756
      4          6           0       13.193256   17.611649   14.806097
      5          8           0       13.884737   18.220070   14.004348
      6          6           0       12.690304   16.176449   14.511676
      7          7           0       13.292204   15.460847   13.360808
      8          6           0       12.862189   15.963655   12.044874
      9          6           0       14.748576   15.222317   13.455245
     10          6           0       15.173771   14.510299   14.734809
     11          6           0       14.936739   13.128233   14.867298
     12          6           0       15.310116   12.447939   16.038615
     13          6           0       15.925806   13.143520   17.090952
     14          6           0       16.169737   14.520765   16.970664
     15          6           0       15.797344   15.201369   15.798129
     16          9           0       16.043754   16.527468   15.705393
     17          1           0       13.179257   19.723570   17.485905
     18          1           0       12.795137   20.290088   15.832903
     19          1           0       14.407917   19.606368   16.199871
     20          1           0       11.625369   18.205202   17.795925
     21          1           0       12.415742   16.645805   17.432538
     22          1           0       11.015604   17.197727   16.459945
     23          1           0       11.603583   16.236299   14.372254
     24          1           0       12.849993   15.578428   15.416996
     25          1           0       11.768182   16.033817   12.000152
     26          1           0       13.192220   15.281947   11.251106
     27          1           0       13.284186   16.955661   11.843809
     28          1           0       15.293268   16.168641   13.359837
     29          1           0       15.062524   14.597351   12.610073
     30          1           0       14.456892   12.579801   14.061343
     31          1           0       15.120636   11.382459   16.130320
     32          1           0       16.213126   12.616637   17.996284
     33          1           0       16.646748   15.057113   17.785762
 ---------------------------------------------------------------------
                    Distance matrix (angstroms):
                    1          2          3          4          5
     1  C    0.000000
     2  N    1.477267   0.000000
     3  C    2.528270   1.478265   0.000000
     4  C    2.511751   1.417201   2.531378   0.000000
     5  O    2.801353   2.297450   3.643824   1.221116   0.000000
     6  C    3.913663   2.539274   2.923730   1.549013   2.420835
     7  N    5.092123   3.858670   4.393782   2.593184   2.894574
     8  C    5.664095   4.583665   5.270706   3.232621   3.158568
     9  C    5.418370   4.379387   5.078040   3.154794   3.167690
    10  C    5.607827   4.550369   4.973727   3.680474   3.994695
    11  C    6.782346   5.604106   5.735721   4.810873   5.270503
    12  C    7.365934   6.249474   6.174418   5.715251   6.283904
    13  C    6.928676   6.004114   5.933598   5.714155   6.282074
    14  C    5.785908   5.037327   5.201519   4.806075   5.263565
    15  C    5.021803   4.210012   4.672777   3.684407   3.998534
    16  F    4.108986   3.623477   4.432535   3.179547   3.227973
    17  H    1.097105   2.126760   2.586416   3.412005   3.857389
    18  H    1.097032   2.112302   3.128341   2.896009   2.969143
    19  H    1.097257   2.116329   3.342834   2.719727   2.648747
    20  H    2.567129   2.127105   1.097105   3.427775   4.413730
    21  H    3.196601   2.114866   1.097064   2.904406   4.048301
    22  H    3.292136   2.118717   1.097013   2.765630   3.912424
    23  H    4.248597   2.858595   2.933917   2.146361   3.045384
    24  H    4.108576   2.687288   2.666968   2.150585   3.169313
    25  H    5.848900   4.713507   5.210167   3.520471   3.643667
    26  H    6.691921   5.623388   6.291315   4.250350   4.085645
    27  H    5.249778   4.407244   5.355488   3.035414   2.574358
    28  H    4.950244   4.163632   5.137803   2.929844   2.570548
    29  H    6.468759   5.447662   6.133133   4.171651   4.056511
    30  H    7.427437   6.167477   6.278887   5.241271   5.669502
    31  H    8.349772   7.178681   6.974976   6.653658   7.266370
    32  H    7.657052   6.797067   6.593953   6.651846   7.263292
    33  H    5.734690   5.224062   5.388801   5.227874   5.650849
                    6          7          8          9         10
     6  C    0.000000
     7  N    1.482858   0.000000
     8  C    2.481922   1.472892   0.000000
     9  C    2.502578   1.478795   2.469247   0.000000
    10  C    2.998908   2.516290   3.832936   1.524810   0.000000
    11  C    3.803230   3.227243   4.506601   2.532684   1.408490
    12  C    4.805907   4.507797   5.856839   3.832271   2.443732
    13  C    5.130282   5.120531   6.542309   4.350360   2.825783
    14  C    4.571035   4.711158   6.106162   3.856170   2.447673
    15  C    3.501348   3.504795   4.825260   2.566994   1.413177
    16  F    3.576842   3.769056   4.882585   2.905869   2.401640
    17  H    4.654801   5.932958   6.621352   6.242617   6.222926
    18  H    4.321881   5.447926   5.750798   5.928869   6.345838
    19  H    4.191007   5.146887   5.737825   5.183525   5.357505
    20  H    4.004524   5.475407   6.295144   6.123196   5.967737
    21  H    2.971045   4.330277   5.448997   4.825691   4.409631
    22  H    2.764666   4.219516   4.942232   5.183198   5.242968
    23  H    1.097262   2.115606   2.659910   3.429292   3.982055
    24  H    1.096692   2.106487   3.394077   2.753162   2.646926
    25  H    2.679255   2.121868   1.097167   3.414466   4.625743
    26  H    3.418095   2.119633   1.097139   2.698894   4.081443
    27  H    2.842074   2.129747   1.096625   2.783100   4.231809
    28  H    2.846439   2.122553   2.771514   1.096048   2.157527
    29  H    3.425941   2.107904   2.650982   1.097023   2.129427
    30  H    4.032308   3.185541   4.249669   2.726779   2.166632
    31  H    5.613276   5.258004   6.540551   4.694567   3.425443
    32  H    6.101231   6.173245   7.605957   5.436498   3.911960
    33  H    5.256044   5.567422   6.935596   4.731145   3.431760
                   11         12         13         14         15
    11  C    0.000000
    12  C    1.405060   0.000000
    13  C    2.433747   1.403681   0.000000
    14  C    2.807771   2.429871   1.403843   0.000000
    15  C    2.430017   2.806528   2.433647   1.405965   0.000000
    16  F    3.671878   4.158344   3.658523   2.375635   1.351983
    17  H    7.310563   7.718162   7.141189   6.023091   5.491200
    18  H    7.537309   8.238127   7.902987   6.779935   5.908428
    19  H    6.634881   7.216861   6.698240   5.437048   4.636370
    20  H    6.731838   7.057731   6.679174   5.908249   5.515394
    21  H    5.030825   5.286067   4.970234   4.338387   4.024043
    22  H    5.871338   6.417230   6.398816   5.830270   5.223838
    23  H    4.584220   5.555792   5.969775   5.526713   4.548828
    24  H    3.264986   4.029711   4.265153   3.814870   2.995715
    25  H    5.167466   6.458560   7.180244   6.809479   5.599263
    26  H    4.556169   5.952926   6.793318   6.492947   5.241048
    27  H    5.149915   6.482310   7.003077   6.367085   5.003014
    28  H    3.412276   4.584730   4.844861   4.064697   2.671137
    29  H    2.696144   4.054155   4.789275   4.499616   3.326935
    30  H    1.086551   2.157540   3.413798   3.894268   3.418458
    31  H    2.162584   1.086076   2.161585   3.414053   3.892603
    32  H    3.417813   2.162488   1.086179   2.163211   3.418421
    33  H    3.893860   3.412756   2.159713   1.086091   2.166329
                   16         17         18         19         20
    16  F    0.000000
    17  H    4.646572   0.000000
    18  H    4.972633   1.789107   0.000000
    19  H    3.521377   1.782477   1.789748   0.000000
    20  H    5.167904   2.194566   3.093309   3.500460   0.000000
    21  H    4.019889   3.171505   3.997946   3.775336   1.785625
    22  H    5.128439   3.480498   3.622515   4.168570   1.780916
    23  H    4.645122   4.933420   4.470627   4.749931   3.949503
    24  H    3.344242   4.644459   4.730299   4.389114   3.749526
    25  H    5.679174   6.760096   5.818974   6.113016   6.190823
    26  H    5.433529   7.655122   6.799413   6.683473   7.337240
    27  H    4.765542   6.285346   5.222111   5.221522   6.304023
    28  H    2.488698   5.842174   5.416922   4.546164   6.105729
    29  H    3.777455   7.321103   6.923505   6.197210   7.191917
    30  H    4.561261   8.024550   8.083834   7.344954   7.321868
    31  H    5.244410   8.670681   9.210986   8.255028   7.844804
    32  H    4.535578   7.744246   8.674371   7.439235   7.233237
    33  H    2.617916   5.821446   6.784732   5.312545   5.926618
                   21         22         23         24         25
    21  H    0.000000
    22  H    1.791910   0.000000
    23  H    3.192591   2.372450   0.000000
    24  H    2.321697   2.659860   1.754372   0.000000
    25  H    5.504969   4.670205   2.386411   3.612828   0.000000
    26  H    6.377549   5.961533   3.629892   4.190425   1.776025
    27  H    5.664283   5.149153   3.120087   3.853954   1.781154
    28  H    5.009464   5.382201   3.826661   3.248052   3.780629
    29  H    5.870075   6.161252   4.213751   3.706294   3.645288
    30  H    5.662476   6.238669   4.648442   3.662196   4.838171
    31  H    6.059294   7.125818   6.246617   4.823982   7.066284
    32  H    5.565261   7.096545   6.890823   5.170647   8.209035
    33  H    4.533224   6.168452   6.202905   4.505348   7.630704
                   26         27         28         29         30
    26  H    0.000000
    27  H    1.777941   0.000000
    28  H    3.106023   2.637073   0.000000
    29  H    2.411120   3.051438   1.756229   0.000000
    30  H    4.098588   5.043893   3.751187   2.558023   0.000000
    31  H    6.536936   7.266864   5.532894   4.767709   2.480897
    32  H    7.856665   8.078290   5.912656   5.853066   4.309231
    33  H    7.395002   7.086474   4.759854   5.432210   4.980345
                   31         32         33
    31  H    0.000000
    32  H    2.489689   0.000000
    33  H    4.309593   2.487624   0.000000
 Stoichiometry    C12H17FN2O
 Framework group  C1[X(C12H17FN2O)]
 Deg. of freedom    93
 Full point group                 C1      NOp   1
 Largest Abelian subgroup         C1      NOp   1
 Largest concise Abelian subgroup C1      NOp   1
                         Standard orientation:                         
 ---------------------------------------------------------------------
 Center     Atomic      Atomic             Coordinates (Angstroms)
 Number     Number       Type             X           Y           Z
 ---------------------------------------------------------------------
      1          6           0        3.387459   -1.849352   -0.479126
      2          7           0        2.508501   -1.063267    0.410717
      3          6           0        2.297025   -1.566922    1.784353
      4          6           0        1.957947    0.166313   -0.029150
      5          8           0        2.217576    0.609549   -1.136967
      6          6           0        0.999137    0.910783    0.933082
      7          7           0        0.195798    2.025337    0.375154
      8          6           0        0.971959    3.242813    0.084062
      9          6           0       -0.742739    1.650566   -0.704442
     10          6           0       -1.693340    0.519277   -0.328162
     11          6           0       -2.780289    0.786387    0.526847
     12          6           0       -3.667182   -0.238529    0.897198
     13          6           0       -3.476415   -1.543008    0.415262
     14          6           0       -2.398248   -1.822055   -0.439410
     15          6           0       -1.511456   -0.796300   -0.811116
     16          9           0       -0.481323   -1.089428   -1.636196
     17          1           0        3.523397   -2.864830   -0.086742
     18          1           0        4.364719   -1.356536   -0.553787
     19          1           0        2.937886   -1.916485   -1.477800
     20          1           0        2.955805   -2.420703    1.986109
     21          1           0        1.254068   -1.886546    1.901109
     22          1           0        2.520946   -0.774975    2.509692
     23          1           0        1.604347    1.284012    1.768788
     24          1           0        0.315421    0.166598    1.359058
     25          1           0        1.580402    3.526157    0.951984
     26          1           0        0.297935    4.077344   -0.146075
     27          1           0        1.637383    3.091322   -0.774336
     28          1           0       -0.188021    1.381794   -1.610737
     29          1           0       -1.354808    2.523471   -0.963032
     30          1           0       -2.935807    1.791227    0.909866
     31          1           0       -4.500773   -0.021195    1.558601
     32          1           0       -4.162204   -2.334624    0.703049
     33          1           0       -2.252635   -2.831893   -0.811725
 ---------------------------------------------------------------------
 Rotational constants (GHZ):      0.7130373      0.3924330      0.3127765
 Standard basis: 6-31G(d,p) (6D, 7F)
 There are   325 symmetry adapted basis functions of A   symmetry.
 Integral buffers will be    131072 words long.
 Raffenetti 2 integral format.
 Two-electron integral symmetry is turned on.
   325 basis functions,   567 primitive gaussians,   325 cartesian basis functions
    60 alpha electrons       60 beta electrons
       nuclear repulsion energy      1145.8681534728 Hartrees.
 NAtoms=   33 NActive=   33 NUniq=   33 SFac= 1.00D+00 NAtFMM=   60 NAOKFM=F Big=F
 One-electron integrals computed using PRISM.
 NBasis=   325 RedAO= T  NBF=   325
 NBsUse=   325 1.00D-06 NBFU=   325
 Harris functional with IExCor=  402 diagonalized for initial guess.
 ExpMin= 1.61D-01 ExpMax= 7.00D+03 ExpMxC= 1.05D+03 IAcc=1 IRadAn=         1 AccDes= 0.00D+00
 HarFok:  IExCor=  402 AccDes= 0.00D+00 IRadAn=         1 IDoV= 1
 ScaDFX=  1.000000  1.000000  1.000000  1.000000
 FoFCou: FMM=F IPFlag=           0 FMFlag=      100000 FMFlg1=           0
         NFxFlg=           0 DoJE=T BraDBF=F KetDBF=T FulRan=T
         Omega=  0.000000  0.000000  1.000000  0.000000  0.000000 ICntrl=     500 IOpCl=  0
         NMat0=    1 NMatS0=    1 NMatT0=    0 NMatD0=    1 NMtDS0=    0 NMtDT0=    0
         I1Cent=           4 NGrid=           0.
 Petite list used in FoFCou.
 Initial guess orbital symmetries:
       Occupied  (A) (A) (A) (A) (A) (A) (A) (A) (A) (A) (A) (A)
                 (A) (A) (A) (A) (A) (A) (A) (A) (A) (A) (A) (A)
                 (A) (A) (A) (A) (A) (A) (A) (A) (A) (A) (A) (A)
                 (A) (A) (A) (A) (A) (A) (A) (A) (A) (A) (A) (A)
                 (A) (A) (A) (A) (A) (A) (A) (A) (A) (A) (A) (A)
       Virtual   (A) (A) (A) (A) (A) (A) (A) (A) (A) (A) (A) (A)
                 (A) (A) (A) (A) (A) (A) (A) (A) (A) (A) (A) (A)
                 (A) (A) (A) (A) (A) (A) (A) (A) (A) (A) (A) (A)
                 (A) (A) (A) (A) (A) (A) (A) (A) (A) (A) (A) (A)
                 (A) (A) (A) (A) (A) (A) (A) (A) (A) (A) (A) (A)
                 (A) (A) (A) (A) (A) (A) (A) (A) (A) (A) (A) (A)
                 (A) (A) (A) (A) (A) (A) (A) (A) (A) (A) (A) (A)
                 (A) (A) (A) (A) (A) (A) (A) (A) (A) (A) (A) (A)
                 (A) (A) (A) (A) (A) (A) (A) (A) (A) (A) (A) (A)
                 (A) (A) (A) (A) (A) (A) (A) (A) (A) (A) (A) (A)
                 (A) (A) (A) (A) (A) (A) (A) (A) (A) (A) (A) (A)
                 (A) (A) (A) (A) (A) (A) (A) (A) (A) (A) (A) (A)
                 (A) (A) (A) (A) (A) (A) (A) (A) (A) (A) (A) (A)
                 (A) (A) (A) (A) (A) (A) (A) (A) (A) (A) (A) (A)
                 (A) (A) (A) (A) (A) (A) (A) (A) (A) (A) (A) (A)
                 (A) (A) (A) (A) (A) (A) (A) (A) (A) (A) (A) (A)
                 (A) (A) (A) (A) (A) (A) (A) (A) (A) (A) (A) (A)
                 (A) (A) (A) (A) (A) (A) (A) (A) (A) (A) (A) (A)
                 (A) (A) (A) (A) (A) (A) (A) (A) (A) (A) (A) (A)
                 (A) (A) (A) (A) (A) (A) (A) (A) (A) (A) (A) (A)
                 (A) (A) (A) (A) (A) (A) (A) (A) (A) (A) (A) (A)
                 (A) (A) (A) (A) (A) (A) (A) (A) (A) (A) (A) (A)
                 (A)
 The electronic state of the initial guess is 1-A.
 Requested convergence on RMS density matrix=1.00D-08 within 128 cycles.
 Requested convergence on MAX density matrix=1.00D-06.
 Requested convergence on             energy=1.00D-06.
 No special actions if energy rises.
 Keep R1 ints in memory in canonical form, NReq=1421145144.
 Integral accuracy reduced to 1.0D-05 until final iterations.
 Initial convergence to 1.0D-05 achieved.  Increase integral accuracy.
 SCF Done:  E(RB3LYP) =  -752.084614396     A.U. after   15 cycles
             Convg  =    0.9123D-08             -V/T =  2.0099

 **********************************************************************

            Population analysis using the SCF density.

 **********************************************************************

 Orbital symmetries:
       Occupied  (A) (A) (A) (A) (A) (A) (A) (A) (A) (A) (A) (A)
                 (A) (A) (A) (A) (A) (A) (A) (A) (A) (A) (A) (A)
                 (A) (A) (A) (A) (A) (A) (A) (A) (A) (A) (A) (A)
                 (A) (A) (A) (A) (A) (A) (A) (A) (A) (A) (A) (A)
                 (A) (A) (A) (A) (A) (A) (A) (A) (A) (A) (A) (A)
       Virtual   (A) (A) (A) (A) (A) (A) (A) (A) (A) (A) (A) (A)
                 (A) (A) (A) (A) (A) (A) (A) (A) (A) (A) (A) (A)
                 (A) (A) (A) (A) (A) (A) (A) (A) (A) (A) (A) (A)
                 (A) (A) (A) (A) (A) (A) (A) (A) (A) (A) (A) (A)
                 (A) (A) (A) (A) (A) (A) (A) (A) (A) (A) (A) (A)
                 (A) (A) (A) (A) (A) (A) (A) (A) (A) (A) (A) (A)
                 (A) (A) (A) (A) (A) (A) (A) (A) (A) (A) (A) (A)
                 (A) (A) (A) (A) (A) (A) (A) (A) (A) (A) (A) (A)
                 (A) (A) (A) (A) (A) (A) (A) (A) (A) (A) (A) (A)
                 (A) (A) (A) (A) (A) (A) (A) (A) (A) (A) (A) (A)
                 (A) (A) (A) (A) (A) (A) (A) (A) (A) (A) (A) (A)
                 (A) (A) (A) (A) (A) (A) (A) (A) (A) (A) (A) (A)
                 (A) (A) (A) (A) (A) (A) (A) (A) (A) (A) (A) (A)
                 (A) (A) (A) (A) (A) (A) (A) (A) (A) (A) (A) (A)
                 (A) (A) (A) (A) (A) (A) (A) (A) (A) (A) (A) (A)
                 (A) (A) (A) (A) (A) (A) (A) (A) (A) (A) (A) (A)
                 (A) (A) (A) (A) (A) (A) (A) (A) (A) (A) (A) (A)
                 (A) (A) (A) (A) (A) (A) (A) (A) (A) (A) (A) (A)
                 (A) (A) (A) (A) (A) (A) (A) (A) (A) (A) (A) (A)
                 (A) (A) (A) (A) (A) (A) (A) (A) (A) (A) (A) (A)
                 (A) (A) (A) (A) (A) (A) (A) (A) (A) (A) (A) (A)
                 (A) (A) (A) (A) (A) (A) (A) (A) (A) (A) (A) (A)
                 (A)
 The electronic state is 1-A.
 Alpha  occ. eigenvalues --  -24.70484 -19.10341 -14.35459 -14.32314 -10.27455
 Alpha  occ. eigenvalues --  -10.27299 -10.22525 -10.21571 -10.21289 -10.20549
 Alpha  occ. eigenvalues --  -10.20112 -10.19909 -10.19722 -10.19613 -10.19252
 Alpha  occ. eigenvalues --  -10.19213  -1.21371  -1.02003  -0.91029  -0.90232
 Alpha  occ. eigenvalues --   -0.85187  -0.76607  -0.74242  -0.73280  -0.71138
 Alpha  occ. eigenvalues --   -0.68626  -0.66951  -0.61728  -0.60830  -0.58076
 Alpha  occ. eigenvalues --   -0.53420  -0.52368  -0.49269  -0.49052  -0.48080
 Alpha  occ. eigenvalues --   -0.47585  -0.46093  -0.45665  -0.44903  -0.44510
 Alpha  occ. eigenvalues --   -0.43755  -0.42734  -0.40949  -0.40453  -0.39968
 Alpha  occ. eigenvalues --   -0.39486  -0.38647  -0.37962  -0.37647  -0.37094
 Alpha  occ. eigenvalues --   -0.36047  -0.35489  -0.34681  -0.33870  -0.33113
 Alpha  occ. eigenvalues --   -0.25301  -0.24726  -0.23989  -0.22592  -0.19432
 Alpha virt. eigenvalues --   -0.01189   0.00120   0.03407   0.07962   0.09009
 Alpha virt. eigenvalues --    0.10348   0.11703   0.11997   0.13026   0.13760
 Alpha virt. eigenvalues --    0.14431   0.14831   0.15460   0.15562   0.16072
 Alpha virt. eigenvalues --    0.17200   0.17821   0.18111   0.18426   0.19195
 Alpha virt. eigenvalues --    0.20014   0.20371   0.21171   0.23198   0.24279
 Alpha virt. eigenvalues --    0.25401   0.25825   0.27016   0.28842   0.30075
 Alpha virt. eigenvalues --    0.31916   0.33637   0.35039   0.36032   0.39206
 Alpha virt. eigenvalues --    0.45738   0.48841   0.49648   0.49863   0.50767
 Alpha virt. eigenvalues --    0.51061   0.52333   0.53274   0.54247   0.54844
 Alpha virt. eigenvalues --    0.55131   0.57029   0.57916   0.58658   0.59630
 Alpha virt. eigenvalues --    0.59714   0.60585   0.60888   0.61965   0.62388
 Alpha virt. eigenvalues --    0.63561   0.64350   0.64720   0.66319   0.68502
 Alpha virt. eigenvalues --    0.69605   0.71605   0.74334   0.74885   0.76928
 Alpha virt. eigenvalues --    0.78269   0.78749   0.79905   0.80392   0.80972
 Alpha virt. eigenvalues --    0.81612   0.82060   0.82993   0.83889   0.84780
 Alpha virt. eigenvalues --    0.86612   0.86984   0.87689   0.88412   0.88859
 Alpha virt. eigenvalues --    0.88931   0.90055   0.90705   0.91982   0.92161
 Alpha virt. eigenvalues --    0.93600   0.94206   0.94902   0.96781   0.96941
 Alpha virt. eigenvalues --    0.97819   0.99315   0.99612   1.03558   1.05334
 Alpha virt. eigenvalues --    1.06848   1.07842   1.10739   1.11167   1.17646
 Alpha virt. eigenvalues --    1.18617   1.19254   1.20613   1.23137   1.25223
 Alpha virt. eigenvalues --    1.26001   1.28232   1.28933   1.32802   1.33220
 Alpha virt. eigenvalues --    1.34621   1.35423   1.37364   1.38211   1.39109
 Alpha virt. eigenvalues --    1.40568   1.40850   1.43236   1.45198   1.45439
 Alpha virt. eigenvalues --    1.46543   1.50156   1.53144   1.58399   1.58683
 Alpha virt. eigenvalues --    1.63649   1.66984   1.69897   1.71511   1.74084
 Alpha virt. eigenvalues --    1.74532   1.76543   1.78237   1.79228   1.79709
 Alpha virt. eigenvalues --    1.81374   1.81686   1.83130   1.84099   1.85592
 Alpha virt. eigenvalues --    1.87397   1.87728   1.89246   1.89917   1.90646
 Alpha virt. eigenvalues --    1.90857   1.93078   1.93613   1.94082   1.94740
 Alpha virt. eigenvalues --    1.95706   1.97646   1.98745   1.98983   1.99368
 Alpha virt. eigenvalues --    2.00816   2.02120   2.03469   2.03843   2.04311
 Alpha virt. eigenvalues --    2.04809   2.05273   2.06862   2.08086   2.08448
 Alpha virt. eigenvalues --    2.10895   2.12831   2.12964   2.13756   2.16463
 Alpha virt. eigenvalues --    2.17832   2.19331   2.23096   2.23434   2.27326
 Alpha virt. eigenvalues --    2.27861   2.29736   2.30132   2.30555   2.32085
 Alpha virt. eigenvalues --    2.33054   2.34645   2.35795   2.37813   2.38805
 Alpha virt. eigenvalues --    2.39090   2.40113   2.41578   2.42836   2.43315
 Alpha virt. eigenvalues --    2.45474   2.49773   2.50091   2.50594   2.51934
 Alpha virt. eigenvalues --    2.54567   2.56812   2.57602   2.58308   2.59109
 Alpha virt. eigenvalues --    2.60887   2.61630   2.63269   2.63932   2.65051
 Alpha virt. eigenvalues --    2.67054   2.68571   2.69728   2.70796   2.72631
 Alpha virt. eigenvalues --    2.73204   2.74624   2.76388   2.79258   2.79675
 Alpha virt. eigenvalues --    2.82698   2.84197   2.84439   2.86484   2.88987
 Alpha virt. eigenvalues --    2.89994   2.94685   2.96056   2.99030   3.02275
 Alpha virt. eigenvalues --    3.03930   3.06764   3.09079   3.11266   3.13515
 Alpha virt. eigenvalues --    3.17346   3.17844   3.21409   3.23358   3.23493
 Alpha virt. eigenvalues --    3.30203   3.33387   3.34526   3.36069   3.40417
 Alpha virt. eigenvalues --    3.41767   3.43362   3.43829   3.44185   3.45899
 Alpha virt. eigenvalues --    3.47422   3.47925   3.53966   3.82979   3.95514
 Alpha virt. eigenvalues --    4.06580   4.11937   4.14011   4.18655   4.20069
 Alpha virt. eigenvalues --    4.35199   4.41665   4.42416   4.49076   4.50712
 Alpha virt. eigenvalues --    4.51375   4.59837   4.71426   4.79263   5.57982
          Condensed to atoms (all electrons):
              1          2          3          4          5          6
     1  C    4.778823   0.273428  -0.047519  -0.016256   0.008804   0.005114
     2  N    0.273428   7.118507   0.280587   0.213085  -0.097256  -0.099071
     3  C   -0.047519   0.280587   4.802652  -0.024011   0.002719   0.001158
     4  C   -0.016256   0.213085  -0.024011   4.562685   0.564468   0.266864
     5  O    0.008804  -0.097256   0.002719   0.564468   8.086978  -0.082455
     6  C    0.005114  -0.099071   0.001158   0.266864  -0.082455   5.071637
     7  N   -0.000067   0.002736   0.000064  -0.046683   0.000746   0.341567
     8  C   -0.000001  -0.000001   0.000002  -0.003211  -0.003366  -0.047697
     9  C   -0.000007   0.000001   0.000005  -0.001761  -0.002515  -0.050541
    10  C    0.000002   0.000016  -0.000037  -0.002914  -0.000176  -0.004811
    11  C    0.000000  -0.000006   0.000003   0.000285  -0.000008  -0.001209
    12  C    0.000000   0.000000   0.000001   0.000002   0.000000  -0.000034
    13  C    0.000000   0.000000  -0.000001  -0.000004   0.000000   0.000022
    14  C    0.000000  -0.000011  -0.000026  -0.000018   0.000001  -0.000089
    15  C   -0.000009   0.000349  -0.000107  -0.000009   0.000135   0.000656
    16  F   -0.000052  -0.000721  -0.000009   0.006409  -0.000876  -0.000173
    17  H    0.379753  -0.031920  -0.006851   0.003913   0.000485  -0.000035
    18  H    0.392011  -0.047745   0.002317  -0.002999   0.002027  -0.000097
    19  H    0.388805  -0.038958   0.003941  -0.003526   0.006976   0.000154
    20  H   -0.007355  -0.026512   0.384896   0.002046  -0.000073  -0.000112
    21  H    0.002646  -0.047731   0.386425  -0.003658   0.000001   0.000310
    22  H    0.003589  -0.041307   0.385052  -0.006875   0.000073   0.001617
    23  H   -0.000262   0.003432  -0.001432  -0.044297   0.000758   0.369052
    24  H   -0.000211   0.003364   0.000707  -0.047411   0.001973   0.370676
    25  H   -0.000001   0.000023  -0.000002  -0.001263   0.000172  -0.004484
    26  H    0.000000   0.000004   0.000000  -0.000040   0.000198   0.004025
    27  H    0.000006  -0.000028  -0.000004   0.005029   0.009586  -0.005546
    28  H    0.000018  -0.000187  -0.000003   0.006341   0.009109  -0.009001
    29  H    0.000000   0.000003   0.000000  -0.000193   0.000182   0.005231
    30  H    0.000000   0.000000   0.000000   0.000006   0.000000   0.000125
    31  H    0.000000   0.000000   0.000000   0.000000   0.000000   0.000000
    32  H    0.000000   0.000000   0.000000   0.000000   0.000000   0.000000
    33  H    0.000000   0.000002   0.000000   0.000002   0.000000  -0.000002
              7          8          9         10         11         12
     1  C   -0.000067  -0.000001  -0.000007   0.000002   0.000000   0.000000
     2  N    0.002736  -0.000001   0.000001   0.000016  -0.000006   0.000000
     3  C    0.000064   0.000002   0.000005  -0.000037   0.000003   0.000001
     4  C   -0.046683  -0.003211  -0.001761  -0.002914   0.000285   0.000002
     5  O    0.000746  -0.003366  -0.002515  -0.000176  -0.000008   0.000000
     6  C    0.341567  -0.047697  -0.050541  -0.004811  -0.001209  -0.000034
     7  N    6.835808   0.314379   0.303276  -0.056531   0.006766   0.000041
     8  C    0.314379   4.812602  -0.043715   0.004238   0.000041   0.000003
     9  C    0.303276  -0.043715   4.906889   0.340236  -0.055001   0.005733
    10  C   -0.056531   0.004238   0.340236   5.036713   0.487685  -0.022980
    11  C    0.006766   0.000041  -0.055001   0.487685   4.903229   0.513123
    12  C    0.000041   0.000003   0.005733  -0.022980   0.513123   4.844106
    13  C    0.000020   0.000000  -0.000092  -0.029971  -0.035209   0.536913
    14  C   -0.000080   0.000003   0.007307  -0.067032  -0.042255  -0.030213
    15  C   -0.002589  -0.000003  -0.045652   0.436360  -0.017305  -0.043901
    16  F   -0.000092   0.000000  -0.002621  -0.052470   0.002704  -0.000078
    17  H    0.000001   0.000000   0.000000   0.000000   0.000000   0.000000
    18  H   -0.000001   0.000000   0.000000   0.000000   0.000000   0.000000
    19  H   -0.000002   0.000000  -0.000001   0.000001   0.000000   0.000000
    20  H   -0.000003   0.000000   0.000000   0.000000   0.000000   0.000000
    21  H    0.000039  -0.000001   0.000013  -0.000002  -0.000014  -0.000004
    22  H    0.000023  -0.000001   0.000001   0.000001   0.000000   0.000000
    23  H   -0.032532  -0.004567   0.005548   0.000231  -0.000059  -0.000002
    24  H   -0.039163   0.005366  -0.006683   0.009973   0.000778   0.000014
    25  H   -0.035933   0.381777   0.004657  -0.000152  -0.000016   0.000000
    26  H   -0.039856   0.380084  -0.002341   0.000333  -0.000054  -0.000001
    27  H   -0.048231   0.376300  -0.006031  -0.000176   0.000030   0.000000
    28  H   -0.047247  -0.003467   0.364516  -0.040826   0.006481  -0.000141
    29  H   -0.042725  -0.004825   0.364987  -0.020951  -0.010521  -0.000043
    30  H    0.002774  -0.000139  -0.008829  -0.041397   0.372947  -0.042022
    31  H    0.000001   0.000000  -0.000154   0.003912  -0.037339   0.366893
    32  H    0.000000   0.000000   0.000005   0.000332   0.004686  -0.039590
    33  H    0.000001   0.000000  -0.000143   0.006052   0.000388   0.004700
             13         14         15         16         17         18
     1  C    0.000000   0.000000  -0.000009  -0.000052   0.379753   0.392011
     2  N    0.000000  -0.000011   0.000349  -0.000721  -0.031920  -0.047745
     3  C   -0.000001  -0.000026  -0.000107  -0.000009  -0.006851   0.002317
     4  C   -0.000004  -0.000018  -0.000009   0.006409   0.003913  -0.002999
     5  O    0.000000   0.000001   0.000135  -0.000876   0.000485   0.002027
     6  C    0.000022  -0.000089   0.000656  -0.000173  -0.000035  -0.000097
     7  N    0.000020  -0.000080  -0.002589  -0.000092   0.000001  -0.000001
     8  C    0.000000   0.000003  -0.000003   0.000000   0.000000   0.000000
     9  C   -0.000092   0.007307  -0.045652  -0.002621   0.000000   0.000000
    10  C   -0.029971  -0.067032   0.436360  -0.052470   0.000000   0.000000
    11  C   -0.035209  -0.042255  -0.017305   0.002704   0.000000   0.000000
    12  C    0.536913  -0.030213  -0.043901  -0.000078   0.000000   0.000000
    13  C    4.836368   0.492732  -0.014688   0.002762   0.000000   0.000000
    14  C    0.492732   5.036191   0.466088  -0.045367   0.000000   0.000000
    15  C   -0.014688   0.466088   4.634047   0.299066  -0.000001   0.000001
    16  F    0.002762  -0.045367   0.299066   9.071246  -0.000001   0.000001
    17  H    0.000000   0.000000  -0.000001  -0.000001   0.612569  -0.037438
    18  H    0.000000   0.000000   0.000001   0.000001  -0.037438   0.603166
    19  H    0.000000   0.000000  -0.000011   0.000322  -0.027051  -0.036335
    20  H    0.000000   0.000000  -0.000001   0.000000   0.002848   0.000876
    21  H    0.000008   0.000163   0.000247   0.000004   0.000893  -0.000373
    22  H    0.000000   0.000000   0.000002   0.000000  -0.000020   0.000297
    23  H    0.000000   0.000001   0.000062   0.000002  -0.000002   0.000032
    24  H   -0.000032  -0.000141   0.001885  -0.000041  -0.000004  -0.000009
    25  H    0.000000   0.000000   0.000003   0.000000   0.000000   0.000000
    26  H    0.000000   0.000000   0.000002   0.000000   0.000000   0.000000
    27  H    0.000000   0.000000  -0.000025  -0.000003   0.000000   0.000002
    28  H   -0.000034   0.000289  -0.009414   0.006509   0.000000  -0.000002
    29  H    0.000026  -0.000249   0.004585   0.000173   0.000000   0.000000
    30  H    0.004859   0.000119   0.004121  -0.000016   0.000000   0.000000
    31  H   -0.041003   0.004543   0.000810   0.000001   0.000000   0.000000
    32  H    0.370409  -0.037677   0.003712  -0.000020   0.000000   0.000000
    33  H   -0.040070   0.355982  -0.032653  -0.000446   0.000000   0.000000
             19         20         21         22         23         24
     1  C    0.388805  -0.007355   0.002646   0.003589  -0.000262  -0.000211
     2  N   -0.038958  -0.026512  -0.047731  -0.041307   0.003432   0.003364
     3  C    0.003941   0.384896   0.386425   0.385052  -0.001432   0.000707
     4  C   -0.003526   0.002046  -0.003658  -0.006875  -0.044297  -0.047411
     5  O    0.006976  -0.000073   0.000001   0.000073   0.000758   0.001973
     6  C    0.000154  -0.000112   0.000310   0.001617   0.369052   0.370676
     7  N   -0.000002  -0.000003   0.000039   0.000023  -0.032532  -0.039163
     8  C    0.000000   0.000000  -0.000001  -0.000001  -0.004567   0.005366
     9  C   -0.000001   0.000000   0.000013   0.000001   0.005548  -0.006683
    10  C    0.000001   0.000000  -0.000002   0.000001   0.000231   0.009973
    11  C    0.000000   0.000000  -0.000014   0.000000  -0.000059   0.000778
    12  C    0.000000   0.000000  -0.000004   0.000000  -0.000002   0.000014
    13  C    0.000000   0.000000   0.000008   0.000000   0.000000  -0.000032
    14  C    0.000000   0.000000   0.000163   0.000000   0.000001  -0.000141
    15  C   -0.000011  -0.000001   0.000247   0.000002   0.000062   0.001885
    16  F    0.000322   0.000000   0.000004   0.000000   0.000002  -0.000041
    17  H   -0.027051   0.002848   0.000893  -0.000020  -0.000002  -0.000004
    18  H   -0.036335   0.000876  -0.000373   0.000297   0.000032  -0.000009
    19  H    0.562568  -0.000012   0.000110  -0.000263  -0.000011  -0.000019
    20  H   -0.000012   0.584240  -0.031408  -0.026969   0.000065   0.000169
    21  H    0.000110  -0.031408   0.605454  -0.042848  -0.000503   0.003010
    22  H   -0.000263  -0.026969  -0.042848   0.605540   0.003610  -0.001543
    23  H   -0.000011   0.000065  -0.000503   0.003610   0.603114  -0.026089
    24  H   -0.000019   0.000169   0.003010  -0.001543  -0.026089   0.601385
    25  H    0.000000   0.000000   0.000000  -0.000004   0.006258   0.000211
    26  H    0.000000   0.000000   0.000000   0.000000   0.000215  -0.000140
    27  H   -0.000001   0.000000  -0.000001   0.000001  -0.001143  -0.000262
    28  H    0.000017   0.000000   0.000004  -0.000002  -0.000244  -0.000878
    29  H    0.000000   0.000000   0.000000   0.000000  -0.000114   0.000239
    30  H    0.000000   0.000000   0.000000   0.000000  -0.000005  -0.000068
    31  H    0.000000   0.000000   0.000000   0.000000   0.000000  -0.000001
    32  H    0.000000   0.000000   0.000000   0.000000   0.000000   0.000000
    33  H    0.000000   0.000000   0.000001   0.000000   0.000000  -0.000004
             25         26         27         28         29         30
     1  C   -0.000001   0.000000   0.000006   0.000018   0.000000   0.000000
     2  N    0.000023   0.000004  -0.000028  -0.000187   0.000003   0.000000
     3  C   -0.000002   0.000000  -0.000004  -0.000003   0.000000   0.000000
     4  C   -0.001263  -0.000040   0.005029   0.006341  -0.000193   0.000006
     5  O    0.000172   0.000198   0.009586   0.009109   0.000182   0.000000
     6  C   -0.004484   0.004025  -0.005546  -0.009001   0.005231   0.000125
     7  N   -0.035933  -0.039856  -0.048231  -0.047247  -0.042725   0.002774
     8  C    0.381777   0.380084   0.376300  -0.003467  -0.004825  -0.000139
     9  C    0.004657  -0.002341  -0.006031   0.364516   0.364987  -0.008829
    10  C   -0.000152   0.000333  -0.000176  -0.040826  -0.020951  -0.041397
    11  C   -0.000016  -0.000054   0.000030   0.006481  -0.010521   0.372947
    12  C    0.000000  -0.000001   0.000000  -0.000141  -0.000043  -0.042022
    13  C    0.000000   0.000000   0.000000  -0.000034   0.000026   0.004859
    14  C    0.000000   0.000000   0.000000   0.000289  -0.000249   0.000119
    15  C    0.000003   0.000002  -0.000025  -0.009414   0.004585   0.004121
    16  F    0.000000   0.000000  -0.000003   0.006509   0.000173  -0.000016
    17  H    0.000000   0.000000   0.000000   0.000000   0.000000   0.000000
    18  H    0.000000   0.000000   0.000002  -0.000002   0.000000   0.000000
    19  H    0.000000   0.000000  -0.000001   0.000017   0.000000   0.000000
    20  H    0.000000   0.000000   0.000000   0.000000   0.000000   0.000000
    21  H    0.000000   0.000000  -0.000001   0.000004   0.000000   0.000000
    22  H   -0.000004   0.000000   0.000001  -0.000002   0.000000   0.000000
    23  H    0.006258   0.000215  -0.001143  -0.000244  -0.000114  -0.000005
    24  H    0.000211  -0.000140  -0.000262  -0.000878   0.000239  -0.000068
    25  H    0.619490  -0.026318  -0.040825  -0.000361   0.000253   0.000001
    26  H   -0.026318   0.622274  -0.041434  -0.001489   0.006710  -0.000012
    27  H   -0.040825  -0.041434   0.619891   0.009584  -0.001788   0.000008
    28  H   -0.000361  -0.001489   0.009584   0.632630  -0.045807   0.000229
    29  H    0.000253   0.006710  -0.001788  -0.045807   0.642496   0.002688
    30  H    0.000001  -0.000012   0.000008   0.000229   0.002688   0.612218
    31  H    0.000000   0.000000   0.000000   0.000002  -0.000006  -0.005429
    32  H    0.000000   0.000000   0.000000   0.000000   0.000000  -0.000188
    33  H    0.000000   0.000000   0.000000   0.000002   0.000002   0.000013
             31         32         33
     1  C    0.000000   0.000000   0.000000
     2  N    0.000000   0.000000   0.000002
     3  C    0.000000   0.000000   0.000000
     4  C    0.000000   0.000000   0.000002
     5  O    0.000000   0.000000   0.000000
     6  C    0.000000   0.000000  -0.000002
     7  N    0.000001   0.000000   0.000001
     8  C    0.000000   0.000000   0.000000
     9  C   -0.000154   0.000005  -0.000143
    10  C    0.003912   0.000332   0.006052
    11  C   -0.037339   0.004686   0.000388
    12  C    0.366893  -0.039590   0.004700
    13  C   -0.041003   0.370409  -0.040070
    14  C    0.004543  -0.037677   0.355982
    15  C    0.000810   0.003712  -0.032653
    16  F    0.000001  -0.000020  -0.000446
    17  H    0.000000   0.000000   0.000000
    18  H    0.000000   0.000000   0.000000
    19  H    0.000000   0.000000   0.000000
    20  H    0.000000   0.000000   0.000000
    21  H    0.000000   0.000000   0.000001
    22  H    0.000000   0.000000   0.000000
    23  H    0.000000   0.000000   0.000000
    24  H   -0.000001   0.000000  -0.000004
    25  H    0.000000   0.000000   0.000000
    26  H    0.000000   0.000000   0.000000
    27  H    0.000000   0.000000   0.000000
    28  H    0.000002   0.000000   0.000002
    29  H   -0.000006   0.000000   0.000002
    30  H   -0.005429  -0.000188   0.000013
    31  H    0.626501  -0.005606  -0.000171
    32  H   -0.005606   0.618060  -0.006538
    33  H   -0.000171  -0.006538   0.615198
 Mulliken atomic charges:
              1
     1  C   -0.161259
     2  N   -0.464081
     3  C   -0.170525
     4  C    0.573995
     5  O   -0.508667
     6  C   -0.132849
     7  N   -0.416509
     8  C   -0.163802
     9  C   -0.077087
    10  C    0.014339
    11  C   -0.100154
    12  C   -0.092522
    13  C   -0.083015
    14  C   -0.140261
    15  C    0.314233
    16  F   -0.286212
    17  H    0.102862
    18  H    0.124269
    19  H    0.143295
    20  H    0.117305
    21  H    0.127215
    22  H    0.120025
    23  H    0.118882
    24  H    0.122948
    25  H    0.096512
    26  H    0.097840
    27  H    0.125060
    28  H    0.123370
    29  H    0.099648
    30  H    0.097998
    31  H    0.087046
    32  H    0.092417
    33  H    0.097683
 Sum of Mulliken atomic charges =   0.00000
 Mulliken charges with hydrogens summed into heavy atoms:
              1
     1  C    0.209167
     2  N   -0.464081
     3  C    0.194021
     4  C    0.573995
     5  O   -0.508667
     6  C    0.108981
     7  N   -0.416509
     8  C    0.155610
     9  C    0.145931
    10  C    0.014339
    11  C   -0.002156
    12  C   -0.005476
    13  C    0.009402
    14  C   -0.042579
    15  C    0.314233
    16  F   -0.286212
 Sum of Mulliken charges with hydrogens summed into heavy atoms =   0.00000
 Electronic spatial extent (au):  <R**2>=           3840.8696
 Charge=              0.0000 electrons
 Dipole moment (field-independent basis, Debye):
    X=             -0.4438    Y=             -1.8097    Z=              2.9820  Tot=              3.5163
 Quadrupole moment (field-independent basis, Debye-Ang):
   XX=            -88.0364   YY=            -85.9799   ZZ=            -96.3840
   XY=             -4.1827   XZ=              4.6962   YZ=             -0.8846
 Traceless Quadrupole moment (field-independent basis, Debye-Ang):
   XX=              2.0970   YY=              4.1535   ZZ=             -6.2506
   XY=             -4.1827   XZ=              4.6962   YZ=             -0.8846
 Octapole moment (field-independent basis, Debye-Ang**2):
  XXX=              9.9401  YYY=            -11.8645  ZZZ=             -7.2996  XYY=              7.0694
  XXY=            -26.0298  XXZ=             23.8584  XZZ=              6.8948  YZZ=             -5.0836
  YYZ=             -5.9926  XYZ=              3.3109
 Hexadecapole moment (field-independent basis, Debye-Ang**3):
 XXXX=          -2908.0146 YYYY=          -1439.7215 ZZZZ=           -572.1325 XXXY=            -31.7985
 XXXZ=            -49.2267 YYYX=              0.2151 YYYZ=              2.8579 ZZZX=             15.4819
 ZZZY=              9.6256 XXYY=           -676.4677 XXZZ=           -590.9467 YYZZ=           -346.8872
 XXYZ=              9.2398 YYXZ=             13.0395 ZZXY=            -13.8118
 N-N= 1.145868153473D+03 E-N=-4.044450695073D+03  KE= 7.447204248939D+02
 1\1\GINC-C02\SP\RB3LYP\6-31G(d,p)\C12H17F1N2O1\TUU61186\19-Mar-2026\0\
 \# b3lyp/6-31g(d,p)\\Generated by mdgx\\0,1\C,0,13.3347041,19.5339747,
 16.4165457\N,0,12.8427043,18.1896832,16.0516688\C,0,11.9195801,17.5193
 513,16.9917556\C,0,13.1932558,17.6116486,14.8060968\O,0,13.8847366,18.
 2200705,14.0043482\C,0,12.690304,16.176449,14.5116764\N,0,13.2922039,1
 5.4608465,13.3608077\C,0,12.8621893,15.9636546,12.0448742\C,0,14.74857
 56,15.2223166,13.4552448\C,0,15.1737705,14.5102991,14.7348094\C,0,14.9
 367391,13.1282326,14.8672975\C,0,15.3101157,12.4479387,16.0386146\C,0,
 15.9258056,13.1435197,17.090952\C,0,16.1697368,14.5207647,16.9706642\C
 ,0,15.797344,15.2013687,15.7981288\F,0,16.0437536,16.5274681,15.705392
 7\H,0,13.1792565,19.72357,17.4859047\H,0,12.795137,20.2900878,15.83290
 31\H,0,14.4079167,19.6063681,16.1998714\H,0,11.6253693,18.2052018,17.7
 959247\H,0,12.4157416,16.6458046,17.4325379\H,0,11.0156042,17.197727,1
 6.459945\H,0,11.6035828,16.2362991,14.3722535\H,0,12.8499934,15.578427
 9,15.4169964\H,0,11.7681815,16.0338171,12.0001518\H,0,13.1922197,15.28
 19474,11.2511056\H,0,13.2841862,16.9556614,11.8438089\H,0,15.2932676,1
 6.1686405,13.3598373\H,0,15.0625235,14.5973513,12.6100732\H,0,14.45689
 19,12.579801,14.0613434\H,0,15.1206361,11.3824586,16.1303196\H,0,16.21
 31255,12.6166367,17.9962839\H,0,16.6467475,15.0571131,17.7857622\\Vers
 ion=EM64L-G09RevC.01\State=1-A\HF=-752.0846144\RMSD=9.123e-09\Dipole=-
 0.7248803,-0.4988712,1.0674682\Quadrupole=-0.7754287,-1.0903945,1.8658
 232,-3.9032681,-0.24842,4.598043\PG=C01 [X(C12H17F1N2O1)]\\@


 Human beings, who are almost unique in having the
 ability to learn from the experience of others, are
 also remarkable for their apparent disinclination to do so.
                               -- Douglas Adams,
                                Last Chance to See
 Job cpu time:  0 days  0 hours  3 minutes 10.7 seconds.
 File lengths (MBytes):  RWF=     47 Int=      0 D2E=      0 Chk=      5 Scr=      1
 Normal termination of Gaussian 09 at Thu Mar 19 13:08:41 2026.
