 Entering Gaussian System, Link 0=/data/opt/apps/g09-C01/g09
 Initial command:
 /data/opt/apps/g09-C01/l1.exe /tmp/g09-tuu61186-3386099e41729ed00x/Gau-3386220.inp -scrdir=/tmp/g09-tuu61186-3386099e41729ed00x/
 Entering Link 1 = /data/opt/apps/g09-C01/l1.exe PID=   3386226.
  
 Copyright (c) 1988,1990,1992,1993,1995,1998,2003,2009,2011,
            Gaussian, Inc.  All Rights Reserved.
  
 This is part of the Gaussian(R) 09 program.  It is based on
 the Gaussian(R) 03 system (copyright 2003, Gaussian, Inc.),
 the Gaussian(R) 98 system (copyright 1998, Gaussian, Inc.),
 the Gaussian(R) 94 system (copyright 1995, Gaussian, Inc.),
 the Gaussian 92(TM) system (copyright 1992, Gaussian, Inc.),
 the Gaussian 90(TM) system (copyright 1990, Gaussian, Inc.),
 the Gaussian 88(TM) system (copyright 1988, Gaussian, Inc.),
 the Gaussian 86(TM) system (copyright 1986, Carnegie Mellon
 University), and the Gaussian 82(TM) system (copyright 1983,
 Carnegie Mellon University). Gaussian is a federally registered
 trademark of Gaussian, Inc.
  
 This software contains proprietary and confidential information,
 including trade secrets, belonging to Gaussian, Inc.
  
 This software is provided under written license and may be
 used, copied, transmitted, or stored only in accord with that
 written license.
  
 The following legend is applicable only to US Government
 contracts under FAR:
  
                    RESTRICTED RIGHTS LEGEND
  
 Use, reproduction and disclosure by the US Government is
 subject to restrictions as set forth in subparagraphs (a)
 and (c) of the Commercial Computer Software - Restricted
 Rights clause in FAR 52.227-19.
  
 Gaussian, Inc.
 340 Quinnipiac St., Bldg. 40, Wallingford CT 06492
  
  
 ---------------------------------------------------------------
 Warning -- This program may not be used in any manner that
 competes with the business of Gaussian, Inc. or will provide
 assistance to any competitor of Gaussian, Inc.  The licensee
 of this program is prohibited from giving any competitor of
 Gaussian, Inc. access to this program.  By using this program,
 the user acknowledges that Gaussian, Inc. is engaged in the
 business of creating and licensing software in the field of
 computational chemistry and represents and warrants to the
 licensee that it is not a competitor of Gaussian, Inc. and that
 it will not use this program in any manner prohibited above.
 ---------------------------------------------------------------
  

 Cite this work as:
 Gaussian 09, Revision C.01,
 M. J. Frisch, G. W. Trucks, H. B. Schlegel, G. E. Scuseria, 
 M. A. Robb, J. R. Cheeseman, G. Scalmani, V. Barone, B. Mennucci, 
 G. A. Petersson, H. Nakatsuji, M. Caricato, X. Li, H. P. Hratchian, 
 A. F. Izmaylov, J. Bloino, G. Zheng, J. L. Sonnenberg, M. Hada, 
 M. Ehara, K. Toyota, R. Fukuda, J. Hasegawa, M. Ishida, T. Nakajima, 
 Y. Honda, O. Kitao, H. Nakai, T. Vreven, J. A. Montgomery, Jr., 
 J. E. Peralta, F. Ogliaro, M. Bearpark, J. J. Heyd, E. Brothers, 
 K. N. Kudin, V. N. Staroverov, T. Keith, R. Kobayashi, J. Normand, 
 K. Raghavachari, A. Rendell, J. C. Burant, S. S. Iyengar, J. Tomasi, 
 M. Cossi, N. Rega, J. M. Millam, M. Klene, J. E. Knox, J. B. Cross, 
 V. Bakken, C. Adamo, J. Jaramillo, R. Gomperts, R. E. Stratmann, 
 O. Yazyev, A. J. Austin, R. Cammi, C. Pomelli, J. W. Ochterski, 
 R. L. Martin, K. Morokuma, V. G. Zakrzewski, G. A. Voth, 
 P. Salvador, J. J. Dannenberg, S. Dapprich, A. D. Daniels, 
 O. Farkas, J. B. Foresman, J. V. Ortiz, J. Cioslowski, 
 and D. J. Fox, Gaussian, Inc., Wallingford CT, 2010.
 
 ******************************************
 Gaussian 09:  EM64L-G09RevC.01 23-Sep-2011
                 4-Mar-2026 
 ******************************************
 %nproc=1
 Will use up to    1 processors via shared memory.
 %mem=512MB
 %chk=
 -----------------------------------------------------
 ## b3lyp/6-31g** maxdisk=16GB, pop=(minimal, MK), 5d,
 -----------------------------------------------------
 1/38=1/1;
 2/12=2,17=6,18=5,40=1/2;
 3/5=1,6=6,7=101,8=1,11=2,16=1,25=1,30=1,74=-5/1,2,3;
 4//1;
 5/5=2,38=5/2;
 6/7=2,8=2,9=2,10=2,15=8,20=1,28=1/1,2;
 99/5=1,9=1/99;
 -----------------
 Generated by mdgx
 -----------------
 Charge =  0 Multiplicity = 1
 Symbolic Z-Matrix:
 C                     14.82189   14.20482   12.56488 
 C                     16.31814   13.99215   12.77654 
 O                     17.09689   14.28653   11.88938 
 N                     16.79214   13.46324   13.99655 
 C                     15.89116   13.01637   15.07752 
 C                     15.66041   14.0725   16.17707 
 C                     14.65528   13.59051   17.21202 
 C                     15.09587   12.99257   18.40994 
 C                     14.16271   12.53785   19.36028 
 C                     12.78704   12.67781   19.11717 
 Cl                    11.62353   12.10803   20.30338 
 C                     12.34115   13.27147   17.9256 
 C                     13.27274   13.72687   16.97416 
 C                     18.26096   13.36062   14.22349 
 C                     18.94281   14.69575   14.61281 
 O                     18.27982   15.65836   14.96508 
 N                     20.35351   14.75319   14.62079 
 C                     21.17981   13.64462   14.10477 
 C                     21.03175   16.00478   15.01033 
 H                     14.62017   14.71924   11.61897 
 H                     14.39838   14.74291   13.4184 
 H                     14.31581   13.23462   12.59358 
 H                     16.33116   12.12342   15.53891 
 H                     14.92812   12.70598   14.65873 
 H                     15.30771   15.00381   15.71793 
 H                     16.61629   14.30639   16.66038 
 H                     16.15916   12.88118   18.60607 
 H                     14.50081   12.0783   20.28469 
 H                     11.27535   13.37747   17.74407 
 H                     12.91986   14.18656   16.05445 
 H                     18.72956   12.98572   13.30554 
 H                     18.46697   12.63626   15.02042 
 H                     20.93671   12.71963   14.64236 
 H                     22.24649   13.86016   14.24357 
 H                     20.98289   13.50776   13.03407 
 H                     20.68385   16.31781   16.00284 
 H                     20.79605   16.78978   14.28082 
 H                     22.11905   15.86354   15.04584 
 
                          Input orientation:                          
 ---------------------------------------------------------------------
 Center     Atomic      Atomic             Coordinates (Angstroms)
 Number     Number       Type             X           Y           Z
 ---------------------------------------------------------------------
      1          6           0       14.821892   14.204818   12.564879
      2          6           0       16.318144   13.992147   12.776541
      3          8           0       17.096893   14.286528   11.889379
      4          7           0       16.792136   13.463238   13.996545
      5          6           0       15.891157   13.016367   15.077524
      6          6           0       15.660410   14.072502   16.177073
      7          6           0       14.655280   13.590512   17.212023
      8          6           0       15.095868   12.992570   18.409935
      9          6           0       14.162712   12.537852   19.360283
     10          6           0       12.787043   12.677813   19.117165
     11         17           0       11.623529   12.108027   20.303383
     12          6           0       12.341146   13.271471   17.925599
     13          6           0       13.272741   13.726874   16.974164
     14          6           0       18.260956   13.360621   14.223490
     15          6           0       18.942810   14.695752   14.612806
     16          8           0       18.279824   15.658358   14.965076
     17          7           0       20.353511   14.753192   14.620789
     18          6           0       21.179809   13.644615   14.104770
     19          6           0       21.031749   16.004782   15.010327
     20          1           0       14.620170   14.719243   11.618966
     21          1           0       14.398382   14.742907   13.418401
     22          1           0       14.315813   13.234620   12.593576
     23          1           0       16.331160   12.123424   15.538914
     24          1           0       14.928119   12.705982   14.658734
     25          1           0       15.307708   15.003807   15.717934
     26          1           0       16.616286   14.306387   16.660379
     27          1           0       16.159157   12.881181   18.606066
     28          1           0       14.500813   12.078304   20.284692
     29          1           0       11.275351   13.377473   17.744071
     30          1           0       12.919862   14.186562   16.054449
     31          1           0       18.729561   12.985719   13.305537
     32          1           0       18.466973   12.636265   15.020423
     33          1           0       20.936709   12.719631   14.642362
     34          1           0       22.246488   13.860160   14.243570
     35          1           0       20.982894   13.507764   13.034071
     36          1           0       20.683853   16.317808   16.002845
     37          1           0       20.796047   16.789784   14.280816
     38          1           0       22.119045   15.863540   15.045844
 ---------------------------------------------------------------------
                    Distance matrix (angstroms):
                    1          2          3          4          5
     1  C    0.000000
     2  C    1.526040   0.000000
     3  O    2.374575   1.216621   0.000000
     4  N    2.545873   1.411674   2.282725   0.000000
     5  C    2.978108   2.535545   3.637496   1.476473   0.000000
     6  C    3.710601   3.464490   4.526987   2.531147   1.541970
     7  C    4.690530   4.753938   5.897156   3.862855   2.532413
     8  C    5.975725   5.850491   6.942340   4.751512   3.426079
     9  C    7.027859   7.078597   8.214725   6.044824   4.643116
    10  C    7.028855   7.375613   8.567594   6.548161   5.105766
    11  Cl   8.631946   9.068774  10.271273   8.266033   6.807887
    12  C    5.980180   6.545891   7.751349   5.940164   4.558419
    13  C    4.697882   5.192773   6.386892   4.617560   3.310312
    14  C    3.910348   2.503399   2.767747   1.489787   2.542407
    15  C    4.627849   3.279604   3.315408   2.554264   3.514098
    16  O    4.453203   3.378481   3.569476   2.823087   3.563495
    17  N    5.926744   4.501626   4.275973   3.838887   4.810174
    18  C    6.565684   5.051808   4.689373   4.392754   5.413944
    19  C    6.912482   5.590937   5.308089   5.045940   5.946497
    20  H    1.095481   2.179855   2.528740   3.456569   4.059165
    21  H    1.094258   2.158961   3.134988   2.775223   2.821703
    22  H    1.094634   2.148640   3.055620   2.855305   2.949465
    23  H    3.931281   3.335117   4.310972   2.094398   1.097192
    24  H    2.577212   2.670026   3.856298   2.118134   1.095064
    25  H    3.288792   3.270510   4.286433   2.745917   2.168053
    26  H    4.472503   3.907920   4.795187   2.799613   2.166886
    27  H    6.327419   5.936573   6.925911   4.689045   3.541286
    28  H    8.013779   7.958506   9.060749   6.834398   5.470614
    29  H    6.331388   7.105206   8.306272   6.669800   5.342896
    30  H    3.974311   4.725548   5.899609   4.444398   3.339511
    31  H    4.159886   2.666021   2.522541   2.111666   3.346254
    32  H    4.666548   3.389821   3.795250   2.130091   2.604336
    33  H    6.626665   5.141179   4.977777   4.259989   5.072969
    34  H    7.619804   6.108588   5.678233   5.474351   6.465114
    35  H    6.218036   4.696897   4.125263   4.300092   5.508445
    36  H    7.116665   5.905688   5.823485   5.226783   5.892849
    37  H    6.731792   5.490104   5.066459   5.213254   6.239501
    38  H    7.883843   6.504022   6.137772   5.936197   6.847919
                    6          7          8          9         10
     6  C    0.000000
     7  C    1.521092   0.000000
     8  C    2.543744   1.409484   0.000000
     9  C    3.838109   2.442487   1.407377   0.000000
    10  C    4.341145   2.820089   2.435142   1.403981   0.000000
    11  Cl   6.097705   4.576656   4.052739   2.742560   1.756568
    12  C    3.836210   2.442580   2.810847   2.431999   1.403953
    13  C    2.540822   1.409463   2.434015   2.810585   2.434930
    14  C    3.329580   4.688825   5.261138   6.622628   7.374145
    15  C    3.689109   5.134237   5.667273   7.074207   7.890171
    16  O    3.293206   4.739417   5.395467   6.782774   7.502942
    17  N    4.991048   6.366801   6.715671   8.105340   9.043011
    18  C    5.911116   7.226854   7.481575   8.836572   9.823306
    19  C    5.826344   7.164881   7.474319   8.838857   9.793367
    20  H    4.719821   5.705922   7.023173   8.055789   7.984409
    21  H    3.106836   3.973107   5.335315   6.342222   6.271918
    22  H    3.918091   4.644561   5.873424   6.804208   6.723421
    23  H    2.157790   2.785716   3.244091   4.413250   5.066754
    24  H    2.170018   2.715901   3.765871   4.766412   4.945969
    25  H    1.096602   2.157629   3.367019   4.545179   4.828952
    26  H    1.096352   2.159243   2.664345   4.054285   4.832303
    27  H    2.751001   2.169828   1.086949   2.161599   3.416685
    28  H    4.711054   3.428109   2.169029   1.086291   2.158596
    29  H    4.708215   3.428175   3.897162   3.413790   2.158733
    30  H    2.745660   2.169546   3.421832   3.897623   3.416752
    31  H    4.341256   5.676810   6.265673   7.597148   8.317653
    32  H    3.358186   4.499189   4.793757   6.113161   7.003330
    33  H    5.659057   6.842363   6.955899   8.257049   9.297455
    34  H    6.867310   8.155418   8.321219   9.657986  10.706586
    35  H    6.206950   7.582930   7.988894   9.352891  10.240353
    36  H    5.505156   6.726362   6.933749   8.251409   9.236243
    37  H    6.111807   7.519065   7.997531   9.374489  10.219723
    38  H    6.797166   8.097331   8.299675   9.642501  10.668214
                   11         12         13         14         15
    11  Cl   0.000000
    12  C    2.742706   0.000000
    13  C    4.052686   1.407298   0.000000
    14  C    9.087878   6.982672   5.708121   0.000000
    15  C    9.625531   7.522309   6.218072   1.548892   0.000000
    16  O    9.241679   7.051937   5.730441   2.414519   1.220760
    17  N   10.747156   8.792910   7.531867   2.544777   1.411893
    18  C   11.493754   9.636386   8.412011   2.935038   2.523322
    19  C   11.476748   9.565374   8.321522   3.909986   2.497048
    20  H    9.550780   6.860292   5.610571   4.678112   5.258218
    21  H    7.876889   5.168383   3.865598   4.180714   4.699006
    22  H    8.243708   5.686047   4.529886   4.270440   5.255598
    23  H    6.697924   4.788996   3.739642   2.642936   3.780908
    24  H    6.568099   4.205307   3.023857   3.424295   4.480964
    25  H    6.556299   4.083535   2.711044   3.695281   3.811847
    26  H    6.559869   4.576970   3.407872   3.088340   3.123600
    27  H    4.904138   3.897765   3.421944   4.884096   5.194951
    28  H    2.877497   3.413668   3.896862   7.247150   7.665028
    29  H    2.877986   1.086328   2.168964   7.822625   8.386454
    30  H    4.904511   2.161829   1.087066   5.706302   6.213977
    31  H   10.011787   7.889136   6.617025   1.096713   2.163017
    32  H    8.661491   6.809500   5.655668   1.096465   2.152686
    33  H   10.915884   9.217801   8.073923   2.783159   2.807411
    34  H   12.354697  10.583935   9.380940   4.016765   3.427657
    35  H   11.933142   9.932909   8.661340   2.974107   2.840011
    36  H   10.876872   9.087239   7.910815   4.216810   2.755813
    37  H   11.930015   9.856385   8.557785   4.264872   2.815968
    38  H   12.324831  10.517563   9.302734   4.671800   3.411703
                   16         17         18         19         20
    16  O    0.000000
    17  N    2.288676   0.000000
    18  C    3.633896   1.475800   0.000000
    19  C    2.774013   1.475880   2.532260   0.000000
    20  H    5.046926   6.471731   7.096684   7.366295   0.000000
    21  H    4.277365   6.075312   6.903992   6.937443   1.813206
    22  H    5.216503   6.547478   7.040331   7.656258   1.801834
    23  H    4.077051   4.892642   5.280170   6.118814   5.003175
    24  H    4.477086   5.798913   6.345986   6.946942   3.658995
    25  H    3.135077   5.169784   6.239493   5.853829   4.165960
    26  H    2.732991   4.280936   5.272080   5.010343   5.437902
    27  H    5.046460   6.081075   6.786122   6.813838   7.386916
    28  H    7.442851   8.572567   9.233296   9.267647   9.060001
    29  H    7.873239   9.698479  10.555291  10.467255   7.106692
    30  H    5.664107   7.591811   8.504216   8.378474   4.779990
    31  H    3.177945   2.736981   2.660194   4.161865   4.768304
    32  H    3.028388   2.863584   3.035568   4.233802   5.541354
    33  H    3.974833   2.115645   1.097132   3.307060   7.282722
    34  H    4.414579   2.126772   1.097054   2.581261   8.110937
    35  H    3.957325   2.113028   1.097224   3.184819   6.629816
    36  H    2.700221   2.113581   3.315814   1.097319   7.651279
    37  H    2.842484   2.111664   3.173382   1.097256   7.036622
    38  H    3.845548   2.128533   2.586776   1.097006   8.323824
                   21         22         23         24         25
    21  H    0.000000
    22  H    1.721071   0.000000
    23  H    3.885087   3.737833   0.000000
    24  H    2.442972   2.217939   1.755738   0.000000
    25  H    2.486523   3.724982   3.062043   2.558513   0.000000
    26  H    3.952224   4.793720   2.470690   3.068841   1.756979
    27  H    5.786038   6.298641   3.164048   4.138548   3.683995
    28  H    7.365905   7.779752   5.086709   5.676968   5.483149
    29  H    5.507192   5.982676   5.656550   4.828345   4.796884
    30  H    3.073157   3.851300   4.019859   2.858887   2.546161
    31  H    4.675421   4.477724   3.388784   4.044794   4.647733
    32  H    4.853643   4.845590   2.256887   3.557972   4.009082
    33  H    6.952801   6.949748   4.729730   6.008627   6.169276
    34  H    7.940586   8.124616   6.299625   7.420445   7.185287
    35  H    6.710372   6.687198   5.461618   6.320023   6.453604
    36  H    6.976160   7.853732   6.062510   6.926788   5.541725
    37  H    6.772266   7.581518   6.579738   7.159109   5.947848
    38  H    7.969506   8.591582   6.908777   7.863170   6.898200
                   26         27         28         29         30
    26  H    0.000000
    27  H    2.454767   0.000000
    28  H    4.751339   2.492489   0.000000
    29  H    5.528368   4.984065   4.306530   0.000000
    30  H    3.747674   4.325252   4.983885   2.492762   0.000000
    31  H    4.179122   5.891818   8.210622   8.684429   6.538436
    32  H    2.983925   4.271164   6.614702   7.725742   5.851758
    33  H    5.025559   6.209835   8.583003  10.168342   8.271379
    34  H    6.143229   7.552839   9.983268  11.526159   9.506407
    35  H    5.731944   7.396498   9.830170  10.790620   8.636894
    36  H    4.585114   6.249804   8.633516  10.009863   8.051362
    37  H    5.412946   7.448874   9.893157  10.690260   8.482737
    38  H    5.942374   7.555788   9.990546  11.447562   9.405026
                   31         32         33         34         35
    31  H    0.000000
    32  H    1.769718   0.000000
    33  H    2.594110   2.499894   0.000000
    34  H    3.743437   4.047981   1.781955   0.000000
    35  H    2.328891   3.321891   1.791616   1.784303   0.000000
    36  H    4.711427   4.408341   3.855091   3.402486   4.098706
    37  H    4.437617   4.819059   4.088600   3.269230   3.515813
    38  H    4.774843   4.873765   3.383028   2.161809   3.299659
                   36         37         38
    36  H    0.000000
    37  H    1.789059   0.000000
    38  H    1.783812   1.787042   0.000000
 Stoichiometry    C14H19ClN2O2
 Framework group  C1[X(C14H19ClN2O2)]
 Deg. of freedom   108
 Full point group                 C1      NOp   1
 Largest Abelian subgroup         C1      NOp   1
 Largest concise Abelian subgroup C1      NOp   1
                         Standard orientation:                         
 ---------------------------------------------------------------------
 Center     Atomic      Atomic             Coordinates (Angstroms)
 Number     Number       Type             X           Y           Z
 ---------------------------------------------------------------------
      1          6           0        1.160213    3.428739    0.303722
      2          6           0        2.133962    2.348683   -0.158979
      3          8           0        3.330500    2.566356   -0.126113
      4          7           0        1.646568    1.104910   -0.615380
      5          6           0        0.205738    0.812062   -0.750368
      6          6           0       -0.396917    0.064106    0.455884
      7          6           0       -1.897841   -0.127856    0.300646
      8          6           0       -2.412977   -1.332342   -0.219445
      9          6           0       -3.801732   -1.502128   -0.371899
     10          6           0       -4.680229   -0.469694   -0.006542
     11         17           0       -6.413200   -0.682338   -0.199222
     12          6           0       -4.173936    0.733118    0.511142
     13          6           0       -2.785574    0.904705    0.664425
     14          6           0        2.614601    0.027423   -0.963806
     15          6           0        3.201439   -0.724353    0.256653
     16          8           0        2.695372   -0.615258    1.362207
     17          7           0        4.292146   -1.596416    0.048556
     18          6           0        4.989451   -1.673377   -1.249839
     19          6           0        4.857459   -2.344502    1.188297
     20          1           0        1.688596    4.289415    0.728136
     21          1           0        0.442052    3.003488    1.011398
     22          1           0        0.538347    3.735389   -0.543316
     23          1           0        0.067119    0.195541   -1.647317
     24          1           0       -0.350832    1.739242   -0.922802
     25          1           0       -0.184100    0.624585    1.374093
     26          1           0        0.098329   -0.908137    0.562939
     27          1           0       -1.739621   -2.136764   -0.503970
     28          1           0       -4.200289   -2.430485   -0.771062
     29          1           0       -4.859194    1.527647    0.792661
     30          1           0       -2.401148    1.838410    1.067072
     31          1           0        3.442466    0.472711   -1.528728
     32          1           0        2.132281   -0.714062   -1.611730
     33          1           0        4.273610   -1.930782   -2.040418
     34          1           0        5.772725   -2.441040   -1.223316
     35          1           0        5.451394   -0.704230   -1.476251
     36          1           0        4.063629   -2.921452    1.679288
     37          1           0        5.289984   -1.639277    1.909096
     38          1           0        5.639129   -3.036178    0.850661
 ---------------------------------------------------------------------
 Rotational constants (GHZ):      0.6324238      0.1231636      0.1091899
 Standard basis: 6-31G(d,p) (5D, 7F)
 There are   365 symmetry adapted basis functions of A   symmetry.
 Integral buffers will be    131072 words long.
 Raffenetti 2 integral format.
 Two-electron integral symmetry is turned on.
   365 basis functions,   689 primitive gaussians,   384 cartesian basis functions
    75 alpha electrons       75 beta electrons
       nuclear repulsion energy      1486.6753890891 Hartrees.
 NAtoms=   38 NActive=   38 NUniq=   38 SFac= 1.00D+00 NAtFMM=   60 NAOKFM=F Big=F
 One-electron integrals computed using PRISM.
 NBasis=   365 RedAO= T  NBF=   365
 NBsUse=   365 1.00D-06 NBFU=   365
 Harris functional with IExCor=  402 diagonalized for initial guess.
 ExpMin= 1.43D-01 ExpMax= 2.52D+04 ExpMxC= 3.78D+03 IAcc=1 IRadAn=         1 AccDes= 0.00D+00
 HarFok:  IExCor=  402 AccDes= 0.00D+00 IRadAn=         1 IDoV= 1
 ScaDFX=  1.000000  1.000000  1.000000  1.000000
 FoFCou: FMM=F IPFlag=           0 FMFlag=      100000 FMFlg1=           0
         NFxFlg=           0 DoJE=T BraDBF=F KetDBF=T FulRan=T
         Omega=  0.000000  0.000000  1.000000  0.000000  0.000000 ICntrl=     500 IOpCl=  0
         NMat0=    1 NMatS0=    1 NMatT0=    0 NMatD0=    1 NMtDS0=    0 NMtDT0=    0
         I1Cent=           4 NGrid=           0.
 Petite list used in FoFCou.
 Initial guess orbital symmetries:
       Occupied  (A) (A) (A) (A) (A) (A) (A) (A) (A) (A) (A) (A)
                 (A) (A) (A) (A) (A) (A) (A) (A) (A) (A) (A) (A)
                 (A) (A) (A) (A) (A) (A) (A) (A) (A) (A) (A) (A)
                 (A) (A) (A) (A) (A) (A) (A) (A) (A) (A) (A) (A)
                 (A) (A) (A) (A) (A) (A) (A) (A) (A) (A) (A) (A)
                 (A) (A) (A) (A) (A) (A) (A) (A) (A) (A) (A) (A)
                 (A) (A) (A)
       Virtual   (A) (A) (A) (A) (A) (A) (A) (A) (A) (A) (A) (A)
                 (A) (A) (A) (A) (A) (A) (A) (A) (A) (A) (A) (A)
                 (A) (A) (A) (A) (A) (A) (A) (A) (A) (A) (A) (A)
                 (A) (A) (A) (A) (A) (A) (A) (A) (A) (A) (A) (A)
                 (A) (A) (A) (A) (A) (A) (A) (A) (A) (A) (A) (A)
                 (A) (A) (A) (A) (A) (A) (A) (A) (A) (A) (A) (A)
                 (A) (A) (A) (A) (A) (A) (A) (A) (A) (A) (A) (A)
                 (A) (A) (A) (A) (A) (A) (A) (A) (A) (A) (A) (A)
                 (A) (A) (A) (A) (A) (A) (A) (A) (A) (A) (A) (A)
                 (A) (A) (A) (A) (A) (A) (A) (A) (A) (A) (A) (A)
                 (A) (A) (A) (A) (A) (A) (A) (A) (A) (A) (A) (A)
                 (A) (A) (A) (A) (A) (A) (A) (A) (A) (A) (A) (A)
                 (A) (A) (A) (A) (A) (A) (A) (A) (A) (A) (A) (A)
                 (A) (A) (A) (A) (A) (A) (A) (A) (A) (A) (A) (A)
                 (A) (A) (A) (A) (A) (A) (A) (A) (A) (A) (A) (A)
                 (A) (A) (A) (A) (A) (A) (A) (A) (A) (A) (A) (A)
                 (A) (A) (A) (A) (A) (A) (A) (A) (A) (A) (A) (A)
                 (A) (A) (A) (A) (A) (A) (A) (A) (A) (A) (A) (A)
                 (A) (A) (A) (A) (A) (A) (A) (A) (A) (A) (A) (A)
                 (A) (A) (A) (A) (A) (A) (A) (A) (A) (A) (A) (A)
                 (A) (A) (A) (A) (A) (A) (A) (A) (A) (A) (A) (A)
                 (A) (A) (A) (A) (A) (A) (A) (A) (A) (A) (A) (A)
                 (A) (A) (A) (A) (A) (A) (A) (A) (A) (A) (A) (A)
                 (A) (A) (A) (A) (A) (A) (A) (A) (A) (A) (A) (A)
                 (A) (A)
 The electronic state of the initial guess is 1-A.
 Requested convergence on RMS density matrix=1.00D-08 within 128 cycles.
 Requested convergence on MAX density matrix=1.00D-06.
 Requested convergence on             energy=1.00D-06.
 No special actions if energy rises.
 Integral accuracy reduced to 1.0D-05 until final iterations.
 Initial convergence to 1.0D-05 achieved.  Increase integral accuracy.
 SCF Done:  E(RB3LYP) =  -1265.10121325     A.U. after   15 cycles
             Convg  =    0.3914D-08             -V/T =  2.0055

 **********************************************************************

            Population analysis using the SCF density.

 **********************************************************************

 Orbital symmetries:
       Occupied  (A) (A) (A) (A) (A) (A) (A) (A) (A) (A) (A) (A)
                 (A) (A) (A) (A) (A) (A) (A) (A) (A) (A) (A) (A)
                 (A) (A) (A) (A) (A) (A) (A) (A) (A) (A) (A) (A)
                 (A) (A) (A) (A) (A) (A) (A) (A) (A) (A) (A) (A)
                 (A) (A) (A) (A) (A) (A) (A) (A) (A) (A) (A) (A)
                 (A) (A) (A) (A) (A) (A) (A) (A) (A) (A) (A) (A)
                 (A) (A) (A)
       Virtual   (A) (A) (A) (A) (A) (A) (A) (A) (A) (A) (A) (A)
                 (A) (A) (A) (A) (A) (A) (A) (A) (A) (A) (A) (A)
                 (A) (A) (A) (A) (A) (A) (A) (A) (A) (A) (A) (A)
                 (A) (A) (A) (A) (A) (A) (A) (A) (A) (A) (A) (A)
                 (A) (A) (A) (A) (A) (A) (A) (A) (A) (A) (A) (A)
                 (A) (A) (A) (A) (A) (A) (A) (A) (A) (A) (A) (A)
                 (A) (A) (A) (A) (A) (A) (A) (A) (A) (A) (A) (A)
                 (A) (A) (A) (A) (A) (A) (A) (A) (A) (A) (A) (A)
                 (A) (A) (A) (A) (A) (A) (A) (A) (A) (A) (A) (A)
                 (A) (A) (A) (A) (A) (A) (A) (A) (A) (A) (A) (A)
                 (A) (A) (A) (A) (A) (A) (A) (A) (A) (A) (A) (A)
                 (A) (A) (A) (A) (A) (A) (A) (A) (A) (A) (A) (A)
                 (A) (A) (A) (A) (A) (A) (A) (A) (A) (A) (A) (A)
                 (A) (A) (A) (A) (A) (A) (A) (A) (A) (A) (A) (A)
                 (A) (A) (A) (A) (A) (A) (A) (A) (A) (A) (A) (A)
                 (A) (A) (A) (A) (A) (A) (A) (A) (A) (A) (A) (A)
                 (A) (A) (A) (A) (A) (A) (A) (A) (A) (A) (A) (A)
                 (A) (A) (A) (A) (A) (A) (A) (A) (A) (A) (A) (A)
                 (A) (A) (A) (A) (A) (A) (A) (A) (A) (A) (A) (A)
                 (A) (A) (A) (A) (A) (A) (A) (A) (A) (A) (A) (A)
                 (A) (A) (A) (A) (A) (A) (A) (A) (A) (A) (A) (A)
                 (A) (A) (A) (A) (A) (A) (A) (A) (A) (A) (A) (A)
                 (A) (A) (A) (A) (A) (A) (A) (A) (A) (A) (A) (A)
                 (A) (A) (A) (A) (A) (A) (A) (A) (A) (A) (A) (A)
                 (A) (A)
 The electronic state is 1-A.
 Alpha  occ. eigenvalues -- -101.52939 -19.10882 -19.10309 -14.35910 -14.35832
 Alpha  occ. eigenvalues --  -10.28283 -10.28163 -10.24951 -10.23373 -10.22794
 Alpha  occ. eigenvalues --  -10.22712 -10.21521 -10.20377 -10.20334 -10.20311
 Alpha  occ. eigenvalues --  -10.20024 -10.20002 -10.18821 -10.18740  -9.46127
 Alpha  occ. eigenvalues --   -7.22444  -7.21473  -7.21444  -1.03213  -1.02458
 Alpha  occ. eigenvalues --   -0.91985  -0.91940  -0.88768  -0.84073  -0.78068
 Alpha  occ. eigenvalues --   -0.75632  -0.75573  -0.73023  -0.72064  -0.70427
 Alpha  occ. eigenvalues --   -0.67048  -0.63964  -0.62233  -0.58366  -0.56124
 Alpha  occ. eigenvalues --   -0.52468  -0.51102  -0.49856  -0.49677  -0.48551
 Alpha  occ. eigenvalues --   -0.47266  -0.46971  -0.46663  -0.45938  -0.44197
 Alpha  occ. eigenvalues --   -0.43323  -0.42811  -0.42158  -0.41869  -0.41504
 Alpha  occ. eigenvalues --   -0.41215  -0.40550  -0.40393  -0.40040  -0.38594
 Alpha  occ. eigenvalues --   -0.38541  -0.37785  -0.37030  -0.35764  -0.35270
 Alpha  occ. eigenvalues --   -0.34832  -0.34013  -0.32662  -0.31253  -0.26202
 Alpha  occ. eigenvalues --   -0.25479  -0.24540  -0.24079  -0.23448  -0.23116
 Alpha virt. eigenvalues --   -0.01782  -0.01482   0.02246   0.02828   0.03156
 Alpha virt. eigenvalues --    0.07196   0.07921   0.09045   0.10371   0.11092
 Alpha virt. eigenvalues --    0.11503   0.12253   0.12652   0.13623   0.13961
 Alpha virt. eigenvalues --    0.14682   0.14936   0.15597   0.16680   0.16946
 Alpha virt. eigenvalues --    0.17592   0.17755   0.18112   0.18870   0.19243
 Alpha virt. eigenvalues --    0.20303   0.21418   0.22624   0.23159   0.23669
 Alpha virt. eigenvalues --    0.25348   0.26550   0.26927   0.27799   0.28024
 Alpha virt. eigenvalues --    0.31645   0.32402   0.33213   0.35412   0.37348
 Alpha virt. eigenvalues --    0.38797   0.40752   0.41549   0.42068   0.44516
 Alpha virt. eigenvalues --    0.45759   0.47969   0.48457   0.48798   0.49436
 Alpha virt. eigenvalues --    0.50551   0.50738   0.52410   0.53420   0.54381
 Alpha virt. eigenvalues --    0.55576   0.56082   0.56781   0.57337   0.58183
 Alpha virt. eigenvalues --    0.58460   0.59002   0.59857   0.60091   0.60823
 Alpha virt. eigenvalues --    0.61501   0.62113   0.62764   0.64028   0.64855
 Alpha virt. eigenvalues --    0.65091   0.65683   0.68245   0.68549   0.70308
 Alpha virt. eigenvalues --    0.70474   0.72762   0.73713   0.74386   0.75145
 Alpha virt. eigenvalues --    0.76813   0.77288   0.79034   0.79603   0.80306
 Alpha virt. eigenvalues --    0.80554   0.80990   0.82309   0.82489   0.83360
 Alpha virt. eigenvalues --    0.83881   0.84308   0.85854   0.86203   0.86697
 Alpha virt. eigenvalues --    0.87098   0.87379   0.88891   0.88985   0.89315
 Alpha virt. eigenvalues --    0.89960   0.90731   0.91078   0.92213   0.92556
 Alpha virt. eigenvalues --    0.92868   0.94022   0.95347   0.96160   0.96796
 Alpha virt. eigenvalues --    0.97128   0.98598   0.99827   1.00068   1.01933
 Alpha virt. eigenvalues --    1.04029   1.04622   1.06362   1.08124   1.09652
 Alpha virt. eigenvalues --    1.12189   1.12782   1.14467   1.15186   1.15408
 Alpha virt. eigenvalues --    1.16660   1.18992   1.24115   1.25316   1.25978
 Alpha virt. eigenvalues --    1.28336   1.29227   1.31472   1.33612   1.33920
 Alpha virt. eigenvalues --    1.34937   1.36058   1.37098   1.38250   1.38832
 Alpha virt. eigenvalues --    1.38981   1.39795   1.40372   1.43906   1.45917
 Alpha virt. eigenvalues --    1.48670   1.49449   1.53240   1.53836   1.57773
 Alpha virt. eigenvalues --    1.60733   1.62894   1.65283   1.66051   1.69096
 Alpha virt. eigenvalues --    1.70881   1.72886   1.73372   1.74902   1.75376
 Alpha virt. eigenvalues --    1.77038   1.78112   1.78514   1.79425   1.80097
 Alpha virt. eigenvalues --    1.81284   1.82650   1.83513   1.85484   1.86110
 Alpha virt. eigenvalues --    1.86427   1.88159   1.90028   1.90579   1.91061
 Alpha virt. eigenvalues --    1.91643   1.91781   1.92883   1.93420   1.95094
 Alpha virt. eigenvalues --    1.95507   1.97176   1.98196   1.98494   1.98879
 Alpha virt. eigenvalues --    2.00604   2.02167   2.02742   2.03015   2.04038
 Alpha virt. eigenvalues --    2.05012   2.05484   2.05646   2.06157   2.08389
 Alpha virt. eigenvalues --    2.09084   2.10095   2.11275   2.12016   2.13468
 Alpha virt. eigenvalues --    2.15202   2.16053   2.17974   2.18731   2.21118
 Alpha virt. eigenvalues --    2.22566   2.23079   2.27089   2.28629   2.28891
 Alpha virt. eigenvalues --    2.29484   2.30481   2.31540   2.32316   2.33416
 Alpha virt. eigenvalues --    2.34790   2.35616   2.36629   2.37696   2.40100
 Alpha virt. eigenvalues --    2.41321   2.42996   2.43731   2.44854   2.45922
 Alpha virt. eigenvalues --    2.47081   2.47877   2.50362   2.51002   2.53376
 Alpha virt. eigenvalues --    2.54661   2.55013   2.56607   2.58047   2.59218
 Alpha virt. eigenvalues --    2.60253   2.61484   2.62096   2.62591   2.63879
 Alpha virt. eigenvalues --    2.65501   2.66667   2.66909   2.69668   2.70390
 Alpha virt. eigenvalues --    2.71360   2.72493   2.72813   2.74449   2.76553
 Alpha virt. eigenvalues --    2.78344   2.79432   2.81335   2.82732   2.84358
 Alpha virt. eigenvalues --    2.85258   2.87118   2.87368   2.88158   2.89654
 Alpha virt. eigenvalues --    2.90969   2.92808   2.98227   3.00872   3.03662
 Alpha virt. eigenvalues --    3.08867   3.10690   3.11214   3.13909   3.17331
 Alpha virt. eigenvalues --    3.17465   3.22695   3.23199   3.23765   3.26137
 Alpha virt. eigenvalues --    3.28331   3.31724   3.34158   3.39012   3.39471
 Alpha virt. eigenvalues --    3.41090   3.42110   3.43338   3.44235   3.44664
 Alpha virt. eigenvalues --    3.45113   3.47190   3.49878   3.55808   3.78343
          Condensed to atoms (all electrons):
              1          2          3          4          5          6
     1  C    5.135484   0.357723  -0.084415  -0.109329   0.001009  -0.001226
     2  C    0.357723   4.329794   0.642533   0.256547  -0.022190  -0.000736
     3  O   -0.084415   0.642533   7.972321  -0.097173   0.002281  -0.000034
     4  N   -0.109329   0.256547  -0.097173   7.022742   0.277061  -0.057015
     5  C    0.001009  -0.022190   0.002281   0.277061   4.847817   0.344533
     6  C   -0.001226  -0.000736  -0.000034  -0.057015   0.344533   5.096852
     7  C   -0.000069   0.000090   0.000000   0.004203  -0.037182   0.300729
     8  C   -0.000002   0.000001   0.000000   0.000014  -0.003127  -0.045671
     9  C    0.000000   0.000000   0.000000   0.000001  -0.000065   0.006007
    10  C    0.000000   0.000000   0.000000   0.000000   0.000015   0.000342
    11  Cl   0.000000   0.000000   0.000000   0.000000   0.000000   0.000005
    12  C    0.000001   0.000000   0.000000   0.000001   0.000010   0.005610
    13  C   -0.000067  -0.000003   0.000000   0.000067  -0.005039  -0.049859
    14  C    0.005617  -0.029249   0.004404   0.294931  -0.032986  -0.001873
    15  C   -0.000171   0.001790   0.001234  -0.045804  -0.000550   0.001660
    16  O   -0.000031   0.005406  -0.000750   0.001059  -0.002589   0.002778
    17  N   -0.000002   0.000164  -0.000150   0.002012  -0.000149   0.000081
    18  C    0.000000  -0.000058  -0.000038   0.000140   0.000011  -0.000003
    19  C    0.000000  -0.000011   0.000001  -0.000056   0.000002  -0.000003
    20  H    0.373870  -0.018125   0.003462   0.003440   0.000216   0.000007
    21  H    0.356281  -0.023659   0.002061   0.002748  -0.000741   0.000412
    22  H    0.357201  -0.021928   0.001368   0.002702  -0.002986   0.000095
    23  H   -0.000306   0.002302  -0.000083  -0.035761   0.377088  -0.053553
    24  H    0.004858  -0.008014   0.000135  -0.032697   0.382817  -0.049661
    25  H   -0.001287   0.001839  -0.000060  -0.000776  -0.036107   0.377706
    26  H    0.000063  -0.000217   0.000004  -0.002312  -0.030158   0.369775
    27  H    0.000000   0.000000   0.000000  -0.000022   0.000095  -0.008273
    28  H    0.000000   0.000000   0.000000   0.000000  -0.000001  -0.000141
    29  H    0.000000   0.000000   0.000000   0.000000  -0.000002  -0.000141
    30  H    0.000059  -0.000019   0.000000  -0.000042   0.000003  -0.007530
    31  H    0.000431  -0.001836   0.013061  -0.038433   0.002111  -0.000089
    32  H   -0.000065   0.004549   0.000563  -0.031983  -0.004580  -0.000708
    33  H    0.000000  -0.000007   0.000001   0.000024  -0.000004  -0.000001
    34  H    0.000000   0.000000   0.000000  -0.000003   0.000000   0.000000
    35  H    0.000000   0.000039   0.000026   0.000045   0.000000   0.000000
    36  H    0.000000  -0.000001   0.000000  -0.000003   0.000000  -0.000003
    37  H    0.000000   0.000004  -0.000001   0.000003   0.000000   0.000000
    38  H    0.000000   0.000000   0.000000   0.000001   0.000000   0.000000
              7          8          9         10         11         12
     1  C   -0.000069  -0.000002   0.000000   0.000000   0.000000   0.000001
     2  C    0.000090   0.000001   0.000000   0.000000   0.000000   0.000000
     3  O    0.000000   0.000000   0.000000   0.000000   0.000000   0.000000
     4  N    0.004203   0.000014   0.000001   0.000000   0.000000   0.000001
     5  C   -0.037182  -0.003127  -0.000065   0.000015   0.000000   0.000010
     6  C    0.300729  -0.045671   0.006007   0.000342   0.000005   0.005610
     7  C    4.764752   0.544446  -0.023006  -0.031928   0.000538  -0.022137
     8  C    0.544446   4.873287   0.506720  -0.035023   0.003648  -0.039252
     9  C   -0.023006   0.506720   4.864086   0.528107  -0.064765  -0.032518
    10  C   -0.031928  -0.035023   0.528107   4.975871   0.240000   0.527506
    11  Cl   0.000538   0.003648  -0.064765   0.240000  16.905651  -0.064636
    12  C   -0.022137  -0.039252  -0.032518   0.527506  -0.064636   4.859357
    13  C    0.538187  -0.038791  -0.039864  -0.034828   0.003683   0.509760
    14  C   -0.000296  -0.000001   0.000000   0.000000   0.000000   0.000000
    15  C    0.000062  -0.000003   0.000000   0.000000   0.000000   0.000000
    16  O    0.000311  -0.000006   0.000000   0.000000   0.000000   0.000000
    17  N    0.000001   0.000000   0.000000   0.000000   0.000000   0.000000
    18  C    0.000000   0.000000   0.000000   0.000000   0.000000   0.000000
    19  C    0.000000   0.000000   0.000000   0.000000   0.000000   0.000000
    20  H    0.000000   0.000000   0.000000   0.000000   0.000000   0.000000
    21  H   -0.000139   0.000002   0.000000   0.000000   0.000000   0.000003
    22  H   -0.000002   0.000000   0.000000   0.000000   0.000000   0.000000
    23  H    0.001965   0.003308  -0.000112  -0.000007   0.000000  -0.000006
    24  H   -0.000893  -0.000011   0.000000  -0.000008   0.000000  -0.000204
    25  H   -0.030380   0.002870  -0.000210   0.000009   0.000000   0.000156
    26  H   -0.028945  -0.005502   0.000156   0.000011   0.000000  -0.000217
    27  H   -0.042732   0.368831  -0.041451   0.004624  -0.000147   0.000341
    28  H    0.003734  -0.031381   0.367869  -0.042429  -0.000733   0.004002
    29  H    0.003646   0.000777   0.003968  -0.042096  -0.000720   0.367965
    30  H   -0.044032   0.005002   0.000375   0.004528  -0.000147  -0.040053
    31  H    0.000008   0.000000   0.000000   0.000000   0.000000   0.000000
    32  H    0.000014   0.000001   0.000000   0.000000   0.000000   0.000000
    33  H    0.000000   0.000000   0.000000   0.000000   0.000000   0.000000
    34  H    0.000000   0.000000   0.000000   0.000000   0.000000   0.000000
    35  H    0.000000   0.000000   0.000000   0.000000   0.000000   0.000000
    36  H    0.000000   0.000000   0.000000   0.000000   0.000000   0.000000
    37  H    0.000000   0.000000   0.000000   0.000000   0.000000   0.000000
    38  H    0.000000   0.000000   0.000000   0.000000   0.000000   0.000000
             13         14         15         16         17         18
     1  C   -0.000067   0.005617  -0.000171  -0.000031  -0.000002   0.000000
     2  C   -0.000003  -0.029249   0.001790   0.005406   0.000164  -0.000058
     3  O    0.000000   0.004404   0.001234  -0.000750  -0.000150  -0.000038
     4  N    0.000067   0.294931  -0.045804   0.001059   0.002012   0.000140
     5  C   -0.005039  -0.032986  -0.000550  -0.002589  -0.000149   0.000011
     6  C   -0.049859  -0.001873   0.001660   0.002778   0.000081  -0.000003
     7  C    0.538187  -0.000296   0.000062   0.000311   0.000001   0.000000
     8  C   -0.038791  -0.000001  -0.000003  -0.000006   0.000000   0.000000
     9  C   -0.039864   0.000000   0.000000   0.000000   0.000000   0.000000
    10  C   -0.034828   0.000000   0.000000   0.000000   0.000000   0.000000
    11  Cl   0.003683   0.000000   0.000000   0.000000   0.000000   0.000000
    12  C    0.509760   0.000000   0.000000   0.000000   0.000000   0.000000
    13  C    4.880317   0.000001  -0.000001  -0.000001   0.000000   0.000000
    14  C    0.000001   5.048862   0.302107  -0.086539  -0.104428   0.002330
    15  C   -0.000001   0.302107   4.421105   0.632066   0.280050  -0.028426
    16  O   -0.000001  -0.086539   0.632066   7.975739  -0.095868   0.002612
    17  N    0.000000  -0.104428   0.280050  -0.095868   7.002586   0.292911
    18  C    0.000000   0.002330  -0.028426   0.002612   0.292911   4.793504
    19  C    0.000000   0.005446  -0.020402   0.008409   0.288102  -0.048150
    20  H    0.000000  -0.000088   0.000001   0.000000   0.000000   0.000000
    21  H   -0.000042  -0.000194   0.000005   0.000021   0.000000   0.000000
    22  H   -0.000026  -0.000213   0.000007   0.000000   0.000000   0.000000
    23  H    0.000010  -0.008208  -0.000519   0.000025   0.000008   0.000002
    24  H    0.005058   0.003343  -0.000122  -0.000019   0.000001   0.000000
    25  H   -0.005188  -0.000672   0.000234   0.001228   0.000006   0.000000
    26  H    0.003673   0.002214   0.000820   0.005687  -0.000088  -0.000001
    27  H    0.005186  -0.000001  -0.000001   0.000000   0.000000   0.000000
    28  H    0.000749   0.000000   0.000000   0.000000   0.000000   0.000000
    29  H   -0.031404   0.000000   0.000000   0.000000   0.000000   0.000000
    30  H    0.368617  -0.000001   0.000000   0.000000   0.000000   0.000000
    31  H    0.000000   0.362453  -0.033447   0.002011   0.001206   0.002271
    32  H    0.000000   0.362994  -0.036272   0.000441   0.002274  -0.001185
    33  H    0.000000   0.001234  -0.005640   0.000043  -0.042840   0.385809
    34  H    0.000000  -0.000103   0.002167  -0.000078  -0.025718   0.385068
    35  H    0.000000   0.000094  -0.004316   0.000071  -0.046674   0.388867
    36  H    0.000000   0.000078  -0.003339   0.005397  -0.040972   0.003654
    37  H    0.000000  -0.000018  -0.004359   0.002953  -0.045564   0.002901
    38  H    0.000000  -0.000029   0.004252   0.000543  -0.030011  -0.007704
             19         20         21         22         23         24
     1  C    0.000000   0.373870   0.356281   0.357201  -0.000306   0.004858
     2  C   -0.000011  -0.018125  -0.023659  -0.021928   0.002302  -0.008014
     3  O    0.000001   0.003462   0.002061   0.001368  -0.000083   0.000135
     4  N   -0.000056   0.003440   0.002748   0.002702  -0.035761  -0.032697
     5  C    0.000002   0.000216  -0.000741  -0.002986   0.377088   0.382817
     6  C   -0.000003   0.000007   0.000412   0.000095  -0.053553  -0.049661
     7  C    0.000000   0.000000  -0.000139  -0.000002   0.001965  -0.000893
     8  C    0.000000   0.000000   0.000002   0.000000   0.003308  -0.000011
     9  C    0.000000   0.000000   0.000000   0.000000  -0.000112   0.000000
    10  C    0.000000   0.000000   0.000000   0.000000  -0.000007  -0.000008
    11  Cl   0.000000   0.000000   0.000000   0.000000   0.000000   0.000000
    12  C    0.000000   0.000000   0.000003   0.000000  -0.000006  -0.000204
    13  C    0.000000   0.000000  -0.000042  -0.000026   0.000010   0.005058
    14  C    0.005446  -0.000088  -0.000194  -0.000213  -0.008208   0.003343
    15  C   -0.020402   0.000001   0.000005   0.000007  -0.000519  -0.000122
    16  O    0.008409   0.000000   0.000021   0.000000   0.000025  -0.000019
    17  N    0.288102   0.000000   0.000000   0.000000   0.000008   0.000001
    18  C   -0.048150   0.000000   0.000000   0.000000   0.000002   0.000000
    19  C    4.763841   0.000000   0.000000   0.000000   0.000000   0.000000
    20  H    0.000000   0.532395  -0.020616  -0.020836  -0.000006   0.000021
    21  H    0.000000  -0.020616   0.590667  -0.034083   0.000180  -0.001685
    22  H    0.000000  -0.020836  -0.034083   0.589732   0.000136   0.002986
    23  H    0.000000  -0.000006   0.000180   0.000136   0.633497  -0.029948
    24  H    0.000000   0.000021  -0.001685   0.002986  -0.029948   0.612554
    25  H    0.000000  -0.000019   0.003494   0.000022   0.005908  -0.004246
    26  H   -0.000005   0.000000  -0.000062  -0.000004  -0.006522   0.005476
    27  H    0.000000   0.000000   0.000000   0.000000   0.000418   0.000037
    28  H    0.000000   0.000000   0.000000   0.000000   0.000001   0.000000
    29  H    0.000000   0.000000   0.000000   0.000000   0.000000   0.000004
    30  H    0.000000  -0.000001   0.001211   0.000045   0.000032   0.000837
    31  H   -0.000221  -0.000006  -0.000013  -0.000026   0.000572  -0.000142
    32  H   -0.000172   0.000001  -0.000009  -0.000001   0.006062   0.000267
    33  H    0.003393   0.000000   0.000000   0.000000  -0.000003   0.000000
    34  H   -0.007662   0.000000   0.000000   0.000000   0.000000   0.000000
    35  H    0.002869   0.000000   0.000000   0.000000   0.000000   0.000000
    36  H    0.389561   0.000000   0.000000   0.000000   0.000000   0.000000
    37  H    0.394094   0.000000   0.000000   0.000000   0.000000   0.000000
    38  H    0.378446   0.000000   0.000000   0.000000   0.000000   0.000000
             25         26         27         28         29         30
     1  C   -0.001287   0.000063   0.000000   0.000000   0.000000   0.000059
     2  C    0.001839  -0.000217   0.000000   0.000000   0.000000  -0.000019
     3  O   -0.000060   0.000004   0.000000   0.000000   0.000000   0.000000
     4  N   -0.000776  -0.002312  -0.000022   0.000000   0.000000  -0.000042
     5  C   -0.036107  -0.030158   0.000095  -0.000001  -0.000002   0.000003
     6  C    0.377706   0.369775  -0.008273  -0.000141  -0.000141  -0.007530
     7  C   -0.030380  -0.028945  -0.042732   0.003734   0.003646  -0.044032
     8  C    0.002870  -0.005502   0.368831  -0.031381   0.000777   0.005002
     9  C   -0.000210   0.000156  -0.041451   0.367869   0.003968   0.000375
    10  C    0.000009   0.000011   0.004624  -0.042429  -0.042096   0.004528
    11  Cl   0.000000   0.000000  -0.000147  -0.000733  -0.000720  -0.000147
    12  C    0.000156  -0.000217   0.000341   0.004002   0.367965  -0.040053
    13  C   -0.005188   0.003673   0.005186   0.000749  -0.031404   0.368617
    14  C   -0.000672   0.002214  -0.000001   0.000000   0.000000  -0.000001
    15  C    0.000234   0.000820  -0.000001   0.000000   0.000000   0.000000
    16  O    0.001228   0.005687   0.000000   0.000000   0.000000   0.000000
    17  N    0.000006  -0.000088   0.000000   0.000000   0.000000   0.000000
    18  C    0.000000  -0.000001   0.000000   0.000000   0.000000   0.000000
    19  C    0.000000  -0.000005   0.000000   0.000000   0.000000   0.000000
    20  H   -0.000019   0.000000   0.000000   0.000000   0.000000  -0.000001
    21  H    0.003494  -0.000062   0.000000   0.000000   0.000000   0.001211
    22  H    0.000022  -0.000004   0.000000   0.000000   0.000000   0.000045
    23  H    0.005908  -0.006522   0.000418   0.000001   0.000000   0.000032
    24  H   -0.004246   0.005476   0.000037   0.000000   0.000004   0.000837
    25  H    0.590928  -0.030809   0.000060   0.000002  -0.000003   0.003176
    26  H   -0.030809   0.594133   0.004959  -0.000005   0.000002   0.000063
    27  H    0.000060   0.004959   0.623640  -0.005942   0.000014  -0.000172
    28  H    0.000002  -0.000005  -0.005942   0.596622  -0.000179   0.000014
    29  H   -0.000003   0.000002   0.000014  -0.000179   0.595342  -0.005831
    30  H    0.003176   0.000063  -0.000172   0.000014  -0.005831   0.622125
    31  H    0.000000   0.000024   0.000000   0.000000   0.000000   0.000000
    32  H    0.000051   0.000049   0.000023   0.000000   0.000000   0.000000
    33  H    0.000000   0.000005   0.000000   0.000000   0.000000   0.000000
    34  H    0.000000   0.000000   0.000000   0.000000   0.000000   0.000000
    35  H    0.000000  -0.000001   0.000000   0.000000   0.000000   0.000000
    36  H    0.000000   0.000025   0.000000   0.000000   0.000000   0.000000
    37  H    0.000000  -0.000002   0.000000   0.000000   0.000000   0.000000
    38  H    0.000000   0.000000   0.000000   0.000000   0.000000   0.000000
             31         32         33         34         35         36
     1  C    0.000431  -0.000065   0.000000   0.000000   0.000000   0.000000
     2  C   -0.001836   0.004549  -0.000007   0.000000   0.000039  -0.000001
     3  O    0.013061   0.000563   0.000001   0.000000   0.000026   0.000000
     4  N   -0.038433  -0.031983   0.000024  -0.000003   0.000045  -0.000003
     5  C    0.002111  -0.004580  -0.000004   0.000000   0.000000   0.000000
     6  C   -0.000089  -0.000708  -0.000001   0.000000   0.000000  -0.000003
     7  C    0.000008   0.000014   0.000000   0.000000   0.000000   0.000000
     8  C    0.000000   0.000001   0.000000   0.000000   0.000000   0.000000
     9  C    0.000000   0.000000   0.000000   0.000000   0.000000   0.000000
    10  C    0.000000   0.000000   0.000000   0.000000   0.000000   0.000000
    11  Cl   0.000000   0.000000   0.000000   0.000000   0.000000   0.000000
    12  C    0.000000   0.000000   0.000000   0.000000   0.000000   0.000000
    13  C    0.000000   0.000000   0.000000   0.000000   0.000000   0.000000
    14  C    0.362453   0.362994   0.001234  -0.000103   0.000094   0.000078
    15  C   -0.033447  -0.036272  -0.005640   0.002167  -0.004316  -0.003339
    16  O    0.002011   0.000441   0.000043  -0.000078   0.000071   0.005397
    17  N    0.001206   0.002274  -0.042840  -0.025718  -0.046674  -0.040972
    18  C    0.002271  -0.001185   0.385809   0.385068   0.388867   0.003654
    19  C   -0.000221  -0.000172   0.003393  -0.007662   0.002869   0.389561
    20  H   -0.000006   0.000001   0.000000   0.000000   0.000000   0.000000
    21  H   -0.000013  -0.000009   0.000000   0.000000   0.000000   0.000000
    22  H   -0.000026  -0.000001   0.000000   0.000000   0.000000   0.000000
    23  H    0.000572   0.006062  -0.000003   0.000000   0.000000   0.000000
    24  H   -0.000142   0.000267   0.000000   0.000000   0.000000   0.000000
    25  H    0.000000   0.000051   0.000000   0.000000   0.000000   0.000000
    26  H    0.000024   0.000049   0.000005   0.000000  -0.000001   0.000025
    27  H    0.000000   0.000023   0.000000   0.000000   0.000000   0.000000
    28  H    0.000000   0.000000   0.000000   0.000000   0.000000   0.000000
    29  H    0.000000   0.000000   0.000000   0.000000   0.000000   0.000000
    30  H    0.000000   0.000000   0.000000   0.000000   0.000000   0.000000
    31  H    0.569116  -0.024915  -0.001343   0.000152   0.002584  -0.000009
    32  H   -0.024915   0.599629   0.002584   0.000003  -0.000295   0.000008
    33  H   -0.001343   0.002584   0.609800  -0.026664  -0.042543   0.000002
    34  H    0.000152   0.000003  -0.026664   0.579367  -0.029655   0.000330
    35  H    0.002584  -0.000295  -0.042543  -0.029655   0.594537  -0.000296
    36  H   -0.000009   0.000008   0.000002   0.000330  -0.000296   0.578261
    37  H    0.000004  -0.000008  -0.000298  -0.000022   0.000610  -0.036328
    38  H   -0.000005   0.000002   0.000400   0.004289   0.000022  -0.029235
             37         38
     1  C    0.000000   0.000000
     2  C    0.000004   0.000000
     3  O   -0.000001   0.000000
     4  N    0.000003   0.000001
     5  C    0.000000   0.000000
     6  C    0.000000   0.000000
     7  C    0.000000   0.000000
     8  C    0.000000   0.000000
     9  C    0.000000   0.000000
    10  C    0.000000   0.000000
    11  Cl   0.000000   0.000000
    12  C    0.000000   0.000000
    13  C    0.000000   0.000000
    14  C   -0.000018  -0.000029
    15  C   -0.004359   0.004252
    16  O    0.002953   0.000543
    17  N   -0.045564  -0.030011
    18  C    0.002901  -0.007704
    19  C    0.394094   0.378446
    20  H    0.000000   0.000000
    21  H    0.000000   0.000000
    22  H    0.000000   0.000000
    23  H    0.000000   0.000000
    24  H    0.000000   0.000000
    25  H    0.000000   0.000000
    26  H   -0.000002   0.000000
    27  H    0.000000   0.000000
    28  H    0.000000   0.000000
    29  H    0.000000   0.000000
    30  H    0.000000   0.000000
    31  H    0.000004  -0.000005
    32  H   -0.000008   0.000002
    33  H   -0.000298   0.000400
    34  H   -0.000022   0.004289
    35  H    0.000610   0.000022
    36  H   -0.036328  -0.029235
    37  H    0.585313  -0.033507
    38  H   -0.033507   0.610215
 Mulliken atomic charges:
              1
     1  C   -0.395627
     2  C    0.523272
     3  O   -0.460751
     4  N   -0.416332
     5  C   -0.056612
     6  C   -0.230072
     7  C    0.099054
     8  C   -0.110136
     9  C   -0.075297
    10  C   -0.094693
    11  Cl  -0.022376
    12  C   -0.075689
    13  C   -0.110193
    14  C   -0.131208
    15  C    0.535808
    16  O   -0.460921
    17  N   -0.436936
    18  C   -0.174513
    19  C   -0.157485
    20  H    0.146282
    21  H    0.124159
    22  H    0.125810
    23  H    0.103520
    24  H    0.109256
    25  H    0.122068
    26  H    0.117713
    27  H    0.090511
    28  H    0.107818
    29  H    0.108658
    30  H    0.091741
    31  H    0.144481
    32  H    0.120677
    33  H    0.116049
    34  H    0.118527
    35  H    0.134015
    36  H    0.132871
    37  H    0.134226
    38  H    0.102322
 Sum of Mulliken atomic charges =   0.00000
 Mulliken charges with hydrogens summed into heavy atoms:
              1
     1  C    0.000624
     2  C    0.523272
     3  O   -0.460751
     4  N   -0.416332
     5  C    0.156164
     6  C    0.009710
     7  C    0.099054
     8  C   -0.019625
     9  C    0.032521
    10  C   -0.094693
    11  Cl  -0.022376
    12  C    0.032969
    13  C   -0.018451
    14  C    0.133949
    15  C    0.535808
    16  O   -0.460921
    17  N   -0.436936
    18  C    0.194079
    19  C    0.211935
 Sum of Mulliken charges with hydrogens summed into heavy atoms =   0.00000
 Electronic spatial extent (au):  <R**2>=           9333.0794
 Charge=              0.0000 electrons
 Dipole moment (field-independent basis, Debye):
    X=              1.4032    Y=             -2.0949    Z=             -2.5760  Tot=              3.6046
 Quadrupole moment (field-independent basis, Debye-Ang):
   XX=           -128.0217   YY=           -112.0027   ZZ=           -120.7804
   XY=            -20.9243   XZ=             -7.8600   YZ=              4.7311
 Traceless Quadrupole moment (field-independent basis, Debye-Ang):
   XX=             -7.7534   YY=              8.2655   ZZ=             -0.5121
   XY=            -20.9243   XZ=             -7.8600   YZ=              4.7311
 Octapole moment (field-independent basis, Debye-Ang**2):
  XXX=            179.4481  YYY=             -7.2660  ZZZ=             -4.2049  XYY=             -5.7492
  XXY=            -76.9098  XXZ=            -14.4900  XZZ=             15.3926  YZZ=              1.2434
  YYZ=              4.5743  XYZ=             -3.7827
 Hexadecapole moment (field-independent basis, Debye-Ang**3):
 XXXX=          -9925.7581 YYYY=          -1800.6981 ZZZZ=           -513.8581 XXXY=           -516.9514
 XXXZ=            -67.0043 YYYX=            -77.6183 YYYZ=             14.9496 ZZZX=              2.4047
 ZZZY=              0.9919 XXYY=          -1898.4779 XXZZ=          -1720.0436 YYZZ=           -384.4283
 XXYZ=             43.2531 YYXZ=             27.1999 ZZXY=             -8.7131
 N-N= 1.486675389089D+03 E-N=-5.940409157533D+03  KE= 1.258229205508D+03
 Merz-Kollman atomic radii used.

 **********************************************************************

            Electrostatic Properties Using The SCF Density

 **********************************************************************

       Atomic Center    1 is at   1.160213  3.428739  0.303722
       Atomic Center    2 is at   2.133962  2.348683 -0.158979
       Atomic Center    3 is at   3.330500  2.566356 -0.126113
       Atomic Center    4 is at   1.646568  1.104910 -0.615380
       Atomic Center    5 is at   0.205738  0.812062 -0.750368
       Atomic Center    6 is at  -0.396917  0.064106  0.455884
       Atomic Center    7 is at  -1.897841 -0.127856  0.300646
       Atomic Center    8 is at  -2.412977 -1.332342 -0.219445
       Atomic Center    9 is at  -3.801732 -1.502128 -0.371899
       Atomic Center   10 is at  -4.680229 -0.469694 -0.006542
       Atomic Center   11 is at  -6.413200 -0.682338 -0.199222
       Atomic Center   12 is at  -4.173936  0.733118  0.511142
       Atomic Center   13 is at  -2.785574  0.904705  0.664425
       Atomic Center   14 is at   2.614601  0.027423 -0.963806
       Atomic Center   15 is at   3.201439 -0.724353  0.256653
       Atomic Center   16 is at   2.695372 -0.615258  1.362207
       Atomic Center   17 is at   4.292146 -1.596416  0.048556
       Atomic Center   18 is at   4.989451 -1.673377 -1.249839
       Atomic Center   19 is at   4.857459 -2.344502  1.188297
       Atomic Center   20 is at   1.688596  4.289415  0.728136
       Atomic Center   21 is at   0.442052  3.003488  1.011398
       Atomic Center   22 is at   0.538347  3.735389 -0.543316
       Atomic Center   23 is at   0.067119  0.195541 -1.647317
       Atomic Center   24 is at  -0.350832  1.739242 -0.922802
       Atomic Center   25 is at  -0.184100  0.624585  1.374093
       Atomic Center   26 is at   0.098329 -0.908137  0.562939
       Atomic Center   27 is at  -1.739621 -2.136764 -0.503970
       Atomic Center   28 is at  -4.200289 -2.430485 -0.771062
       Atomic Center   29 is at  -4.859194  1.527647  0.792661
       Atomic Center   30 is at  -2.401148  1.838410  1.067072
       Atomic Center   31 is at   3.442466  0.472711 -1.528728
       Atomic Center   32 is at   2.132281 -0.714062 -1.611730
       Atomic Center   33 is at   4.273610 -1.930782 -2.040418
       Atomic Center   34 is at   5.772725 -2.441040 -1.223316
       Atomic Center   35 is at   5.451394 -0.704230 -1.476251
       Atomic Center   36 is at   4.063629 -2.921452  1.679288
       Atomic Center   37 is at   5.289984 -1.639277  1.909096
       Atomic Center   38 is at   5.639129 -3.036178  0.850661
    1638 points will be used for fitting atomic charges
 Fitting point charges to electrostatic potential
 Charges from ESP fit, RMS=   0.00139 RRMS=   0.08666:
 Charge=   0.00000 Dipole=     1.4997    -2.0897    -2.5975 Tot=     3.6555
              1
     1  C   -0.523473
     2  C    0.693170
     3  O   -0.527144
     4  N   -0.319486
     5  C   -0.072377
     6  C   -0.104252
     7  C    0.125822
     8  C   -0.278469
     9  C    0.024169
    10  C   -0.058472
    11  Cl  -0.099527
    12  C   -0.030801
    13  C   -0.205979
    14  C   -0.171611
    15  C    0.546952
    16  O   -0.497358
    17  N   -0.119973
    18  C   -0.237549
    19  C   -0.263317
    20  H    0.160660
    21  H    0.153116
    22  H    0.133736
    23  H    0.091551
    24  H    0.071613
    25  H    0.069468
    26  H    0.081626
    27  H    0.157126
    28  H    0.096680
    29  H    0.113168
    30  H    0.130977
    31  H    0.099361
    32  H    0.121102
    33  H    0.068870
    34  H    0.130624
    35  H    0.101698
    36  H    0.099143
    37  H    0.115942
    38  H    0.123215
 Charges from ESP fit with hydrogens summed into heavy atoms:
              1
     1  C   -0.075960
     2  C    0.693170
     3  O   -0.527144
     4  N   -0.319486
     5  C    0.090787
     6  C    0.046841
     7  C    0.125822
     8  C   -0.121344
     9  C    0.120849
    10  C   -0.058472
    11  Cl  -0.099527
    12  C    0.082366
    13  C   -0.075002
    14  C    0.048851
    15  C    0.546952
    16  O   -0.497358
    17  N   -0.119973
    18  C    0.063643
    19  C    0.074983
    20  H    0.000000
    21  H    0.000000
    22  H    0.000000
    23  H    0.000000
    24  H    0.000000
    25  H    0.000000
    26  H    0.000000
    27  H    0.000000
    28  H    0.000000
    29  H    0.000000
    30  H    0.000000
    31  H    0.000000
    32  H    0.000000
    33  H    0.000000
    34  H    0.000000
    35  H    0.000000
    36  H    0.000000
    37  H    0.000000
    38  H    0.000000
 -----------------------------------------------------------------

              Electrostatic Properties (Atomic Units)

 -----------------------------------------------------------------
    Center     Electric         -------- Electric Field --------
               Potential          X             Y             Z
 -----------------------------------------------------------------
    1 Atom    -14.751634
    2 Atom    -14.657531
    3 Atom    -22.376738
    4 Atom    -18.336037
    5 Atom    -14.709645
    6 Atom    -14.752304
    7 Atom    -14.739057
    8 Atom    -14.742989
    9 Atom    -14.740001
   10 Atom    -14.692465
   11 Atom    -64.413537
   12 Atom    -14.739753
   13 Atom    -14.742707
   14 Atom    -14.703648
   15 Atom    -14.656678
   16 Atom    -22.371131
   17 Atom    -18.334658
   18 Atom    -14.709669
   19 Atom    -14.721237
   20 Atom     -1.108094
   21 Atom     -1.105131
   22 Atom     -1.102693
   23 Atom     -1.109252
   24 Atom     -1.105580
   25 Atom     -1.122538
   26 Atom     -1.123509
   27 Atom     -1.097812
   28 Atom     -1.097394
   29 Atom     -1.097348
   30 Atom     -1.096972
   31 Atom     -1.101911
   32 Atom     -1.086018
   33 Atom     -1.101886
   34 Atom     -1.091507
   35 Atom     -1.106128
   36 Atom     -1.117909
   37 Atom     -1.120451
   38 Atom     -1.102419
 -----------------------------------------------------------------
 1\1\GINC-C13\SP\RB3LYP\6-31G(d,p)\C14H19Cl1N2O2\TUU61186\04-Mar-2026\0
 \\## b3lyp/6-31g** maxdisk=16GB, pop=(minimal, MK), 5d\\Generated by m
 dgx\\0,1\C,0,14.8218921,14.2048177,12.5648794\C,0,16.3181441,13.992146
 6,12.7765405\O,0,17.096893,14.2865283,11.8893789\N,0,16.7921364,13.463
 2383,13.9965453\C,0,15.8911568,13.0163669,15.0775242\C,0,15.6604097,14
 .072502,16.1770726\C,0,14.6552803,13.5905122,17.2120226\C,0,15.0958675
 ,12.9925702,18.4099352\C,0,14.162712,12.5378522,19.3602834\C,0,12.7870
 427,12.6778125,19.1171652\Cl,0,11.6235294,12.1080267,20.3033828\C,0,12
 .341146,13.2714708,17.9255985\C,0,13.2727408,13.7268737,16.9741641\C,0
 ,18.2609564,13.360621,14.2234902\C,0,18.9428103,14.6957518,14.6128064\
 O,0,18.279824,15.6583582,14.965076\N,0,20.3535114,14.7531924,14.620789
 3\C,0,21.1798093,13.6446154,14.10477\C,0,21.0317494,16.0047815,15.0103
 271\H,0,14.6201696,14.7192429,11.6189657\H,0,14.398382,14.7429074,13.4
 184005\H,0,14.3158126,13.2346197,12.5935762\H,0,16.33116,12.1234239,15
 .5389143\H,0,14.9281191,12.7059822,14.6587341\H,0,15.3077075,15.003806
 6,15.7179339\H,0,16.6162858,14.3063873,16.6603791\H,0,16.1591567,12.88
 11805,18.6060663\H,0,14.5008125,12.0783041,20.2846917\H,0,11.2753506,1
 3.377473,17.7440707\H,0,12.9198619,14.186562,16.0544489\H,0,18.7295612
 ,12.9857189,13.305537\H,0,18.4669732,12.6362649,15.0204227\H,0,20.9367
 086,12.7196313,14.6423624\H,0,22.2464875,13.86016,14.2435695\H,0,20.98
 28941,13.5077643,13.034071\H,0,20.6838531,16.3178082,16.0028446\H,0,20
 .7960472,16.7897843,14.2808161\H,0,22.1190452,15.8635402,15.0458437\\V
 ersion=EM64L-G09RevC.01\State=1-A\HF=-1265.1012133\RMSD=3.914e-09\Dipo
 le=1.119272,-0.8484931,0.1961185\Quadrupole=16.0306608,-3.1825299,-12.
 8481309,-4.6964301,8.3989021,3.9256227\PG=C01 [X(C14H19Cl1N2O2)]\\@


 SCIENCE AT ITS BEST PROVIDES US WITH BETTER QUESTIONS, 
 NOT ABSOLUTE ANSWERS

                                    -- NORMAN COUSINS, 1976
 Job cpu time:  0 days  0 hours  2 minutes 49.8 seconds.
 File lengths (MBytes):  RWF=     78 Int=      0 D2E=      0 Chk=      6 Scr=      1
 Normal termination of Gaussian 09 at Wed Mar  4 21:04:02 2026.
