 Entering Gaussian System, Link 0=/data/opt/apps/g09-C01/g09
 Initial command:
 /data/opt/apps/g09-C01/l1.exe /tmp/g09-tuu61186-1485746ad3a4fd8a7x/Gau-1485847.inp -scrdir=/tmp/g09-tuu61186-1485746ad3a4fd8a7x/
 Entering Link 1 = /data/opt/apps/g09-C01/l1.exe PID=   1485853.
  
 Copyright (c) 1988,1990,1992,1993,1995,1998,2003,2009,2011,
            Gaussian, Inc.  All Rights Reserved.
  
 This is part of the Gaussian(R) 09 program.  It is based on
 the Gaussian(R) 03 system (copyright 2003, Gaussian, Inc.),
 the Gaussian(R) 98 system (copyright 1998, Gaussian, Inc.),
 the Gaussian(R) 94 system (copyright 1995, Gaussian, Inc.),
 the Gaussian 92(TM) system (copyright 1992, Gaussian, Inc.),
 the Gaussian 90(TM) system (copyright 1990, Gaussian, Inc.),
 the Gaussian 88(TM) system (copyright 1988, Gaussian, Inc.),
 the Gaussian 86(TM) system (copyright 1986, Carnegie Mellon
 University), and the Gaussian 82(TM) system (copyright 1983,
 Carnegie Mellon University). Gaussian is a federally registered
 trademark of Gaussian, Inc.
  
 This software contains proprietary and confidential information,
 including trade secrets, belonging to Gaussian, Inc.
  
 This software is provided under written license and may be
 used, copied, transmitted, or stored only in accord with that
 written license.
  
 The following legend is applicable only to US Government
 contracts under FAR:
  
                    RESTRICTED RIGHTS LEGEND
  
 Use, reproduction and disclosure by the US Government is
 subject to restrictions as set forth in subparagraphs (a)
 and (c) of the Commercial Computer Software - Restricted
 Rights clause in FAR 52.227-19.
  
 Gaussian, Inc.
 340 Quinnipiac St., Bldg. 40, Wallingford CT 06492
  
  
 ---------------------------------------------------------------
 Warning -- This program may not be used in any manner that
 competes with the business of Gaussian, Inc. or will provide
 assistance to any competitor of Gaussian, Inc.  The licensee
 of this program is prohibited from giving any competitor of
 Gaussian, Inc. access to this program.  By using this program,
 the user acknowledges that Gaussian, Inc. is engaged in the
 business of creating and licensing software in the field of
 computational chemistry and represents and warrants to the
 licensee that it is not a competitor of Gaussian, Inc. and that
 it will not use this program in any manner prohibited above.
 ---------------------------------------------------------------
  

 Cite this work as:
 Gaussian 09, Revision C.01,
 M. J. Frisch, G. W. Trucks, H. B. Schlegel, G. E. Scuseria, 
 M. A. Robb, J. R. Cheeseman, G. Scalmani, V. Barone, B. Mennucci, 
 G. A. Petersson, H. Nakatsuji, M. Caricato, X. Li, H. P. Hratchian, 
 A. F. Izmaylov, J. Bloino, G. Zheng, J. L. Sonnenberg, M. Hada, 
 M. Ehara, K. Toyota, R. Fukuda, J. Hasegawa, M. Ishida, T. Nakajima, 
 Y. Honda, O. Kitao, H. Nakai, T. Vreven, J. A. Montgomery, Jr., 
 J. E. Peralta, F. Ogliaro, M. Bearpark, J. J. Heyd, E. Brothers, 
 K. N. Kudin, V. N. Staroverov, T. Keith, R. Kobayashi, J. Normand, 
 K. Raghavachari, A. Rendell, J. C. Burant, S. S. Iyengar, J. Tomasi, 
 M. Cossi, N. Rega, J. M. Millam, M. Klene, J. E. Knox, J. B. Cross, 
 V. Bakken, C. Adamo, J. Jaramillo, R. Gomperts, R. E. Stratmann, 
 O. Yazyev, A. J. Austin, R. Cammi, C. Pomelli, J. W. Ochterski, 
 R. L. Martin, K. Morokuma, V. G. Zakrzewski, G. A. Voth, 
 P. Salvador, J. J. Dannenberg, S. Dapprich, A. D. Daniels, 
 O. Farkas, J. B. Foresman, J. V. Ortiz, J. Cioslowski, 
 and D. J. Fox, Gaussian, Inc., Wallingford CT, 2010.
 
 ******************************************
 Gaussian 09:  EM64L-G09RevC.01 23-Sep-2011
                 4-Mar-2026 
 ******************************************
 %nprocshared=8
 Will use up to    8 processors via shared memory.
 %mem=14GB
 ------------------
 # b3lyp/6-31g(d,p)
 ------------------
 1/38=1/1;
 2/12=2,17=6,18=5,40=1/2;
 3/5=1,6=6,7=101,11=2,16=1,25=1,30=1,74=-5/1,2,3;
 4//1;
 5/5=2,38=5/2;
 6/7=2,8=2,9=2,10=2,28=1/1;
 99/5=1,9=1/99;
 -----------------
 Generated by mdgx
 -----------------
 Charge =  0 Multiplicity = 1
 Symbolic Z-Matrix:
 C                     14.82189   14.20482   12.56488 
 C                     16.31814   13.99215   12.77654 
 O                     17.09689   14.28653   11.88938 
 N                     16.79214   13.46324   13.99655 
 C                     15.89116   13.01637   15.07752 
 C                     15.66041   14.0725   16.17707 
 C                     14.65528   13.59051   17.21202 
 C                     15.09587   12.99257   18.40994 
 C                     14.16271   12.53785   19.36028 
 C                     12.78704   12.67781   19.11717 
 Cl                    11.62353   12.10803   20.30338 
 C                     12.34115   13.27147   17.9256 
 C                     13.27274   13.72687   16.97416 
 C                     18.26096   13.36062   14.22349 
 C                     18.94281   14.69575   14.61281 
 O                     18.27982   15.65836   14.96508 
 N                     20.35351   14.75319   14.62079 
 C                     21.17981   13.64462   14.10477 
 C                     21.03175   16.00478   15.01033 
 H                     14.62017   14.71924   11.61897 
 H                     14.39838   14.74291   13.4184 
 H                     14.31581   13.23462   12.59358 
 H                     16.33116   12.12342   15.53891 
 H                     14.92812   12.70598   14.65873 
 H                     15.30771   15.00381   15.71793 
 H                     16.61629   14.30639   16.66038 
 H                     16.15916   12.88118   18.60607 
 H                     14.50081   12.0783   20.28469 
 H                     11.27535   13.37747   17.74407 
 H                     12.91986   14.18656   16.05445 
 H                     18.72956   12.98572   13.30554 
 H                     18.46697   12.63626   15.02042 
 H                     20.93671   12.71963   14.64236 
 H                     22.24649   13.86016   14.24357 
 H                     20.98289   13.50776   13.03407 
 H                     20.68385   16.31781   16.00284 
 H                     20.79605   16.78978   14.28082 
 H                     22.11905   15.86354   15.04584 
 
                          Input orientation:                          
 ---------------------------------------------------------------------
 Center     Atomic      Atomic             Coordinates (Angstroms)
 Number     Number       Type             X           Y           Z
 ---------------------------------------------------------------------
      1          6           0       14.821892   14.204818   12.564879
      2          6           0       16.318144   13.992147   12.776541
      3          8           0       17.096893   14.286528   11.889379
      4          7           0       16.792136   13.463238   13.996545
      5          6           0       15.891157   13.016367   15.077524
      6          6           0       15.660410   14.072502   16.177073
      7          6           0       14.655280   13.590512   17.212023
      8          6           0       15.095868   12.992570   18.409935
      9          6           0       14.162712   12.537852   19.360283
     10          6           0       12.787043   12.677813   19.117165
     11         17           0       11.623529   12.108027   20.303383
     12          6           0       12.341146   13.271471   17.925599
     13          6           0       13.272741   13.726874   16.974164
     14          6           0       18.260956   13.360621   14.223490
     15          6           0       18.942810   14.695752   14.612806
     16          8           0       18.279824   15.658358   14.965076
     17          7           0       20.353511   14.753192   14.620789
     18          6           0       21.179809   13.644615   14.104770
     19          6           0       21.031749   16.004782   15.010327
     20          1           0       14.620170   14.719243   11.618966
     21          1           0       14.398382   14.742907   13.418401
     22          1           0       14.315813   13.234620   12.593576
     23          1           0       16.331160   12.123424   15.538914
     24          1           0       14.928119   12.705982   14.658734
     25          1           0       15.307708   15.003807   15.717934
     26          1           0       16.616286   14.306387   16.660379
     27          1           0       16.159157   12.881181   18.606066
     28          1           0       14.500813   12.078304   20.284692
     29          1           0       11.275351   13.377473   17.744071
     30          1           0       12.919862   14.186562   16.054449
     31          1           0       18.729561   12.985719   13.305537
     32          1           0       18.466973   12.636265   15.020423
     33          1           0       20.936709   12.719631   14.642362
     34          1           0       22.246488   13.860160   14.243570
     35          1           0       20.982894   13.507764   13.034071
     36          1           0       20.683853   16.317808   16.002845
     37          1           0       20.796047   16.789784   14.280816
     38          1           0       22.119045   15.863540   15.045844
 ---------------------------------------------------------------------
                    Distance matrix (angstroms):
                    1          2          3          4          5
     1  C    0.000000
     2  C    1.526040   0.000000
     3  O    2.374575   1.216621   0.000000
     4  N    2.545873   1.411674   2.282725   0.000000
     5  C    2.978108   2.535545   3.637496   1.476473   0.000000
     6  C    3.710601   3.464490   4.526987   2.531147   1.541970
     7  C    4.690530   4.753938   5.897156   3.862855   2.532413
     8  C    5.975725   5.850491   6.942340   4.751512   3.426079
     9  C    7.027859   7.078597   8.214725   6.044824   4.643116
    10  C    7.028855   7.375613   8.567594   6.548161   5.105766
    11  Cl   8.631946   9.068774  10.271273   8.266033   6.807887
    12  C    5.980180   6.545891   7.751349   5.940164   4.558419
    13  C    4.697882   5.192773   6.386892   4.617560   3.310312
    14  C    3.910348   2.503399   2.767747   1.489787   2.542407
    15  C    4.627849   3.279604   3.315408   2.554264   3.514098
    16  O    4.453203   3.378481   3.569476   2.823087   3.563495
    17  N    5.926744   4.501626   4.275973   3.838887   4.810174
    18  C    6.565684   5.051808   4.689373   4.392754   5.413944
    19  C    6.912482   5.590937   5.308089   5.045940   5.946497
    20  H    1.095481   2.179855   2.528740   3.456569   4.059165
    21  H    1.094258   2.158961   3.134988   2.775223   2.821703
    22  H    1.094634   2.148640   3.055620   2.855305   2.949465
    23  H    3.931281   3.335117   4.310972   2.094398   1.097192
    24  H    2.577212   2.670026   3.856298   2.118134   1.095064
    25  H    3.288792   3.270510   4.286433   2.745917   2.168053
    26  H    4.472503   3.907920   4.795187   2.799613   2.166886
    27  H    6.327419   5.936573   6.925911   4.689045   3.541286
    28  H    8.013779   7.958506   9.060749   6.834398   5.470614
    29  H    6.331388   7.105206   8.306272   6.669800   5.342896
    30  H    3.974311   4.725548   5.899609   4.444398   3.339511
    31  H    4.159886   2.666021   2.522541   2.111666   3.346254
    32  H    4.666548   3.389821   3.795250   2.130091   2.604336
    33  H    6.626665   5.141179   4.977777   4.259989   5.072969
    34  H    7.619804   6.108588   5.678233   5.474351   6.465114
    35  H    6.218036   4.696897   4.125263   4.300092   5.508445
    36  H    7.116665   5.905688   5.823485   5.226783   5.892849
    37  H    6.731792   5.490104   5.066459   5.213254   6.239501
    38  H    7.883843   6.504022   6.137772   5.936197   6.847919
                    6          7          8          9         10
     6  C    0.000000
     7  C    1.521092   0.000000
     8  C    2.543744   1.409484   0.000000
     9  C    3.838109   2.442487   1.407377   0.000000
    10  C    4.341145   2.820089   2.435142   1.403981   0.000000
    11  Cl   6.097705   4.576656   4.052739   2.742560   1.756568
    12  C    3.836210   2.442580   2.810847   2.431999   1.403953
    13  C    2.540822   1.409463   2.434015   2.810585   2.434930
    14  C    3.329580   4.688825   5.261138   6.622628   7.374145
    15  C    3.689109   5.134237   5.667273   7.074207   7.890171
    16  O    3.293206   4.739417   5.395467   6.782774   7.502942
    17  N    4.991048   6.366801   6.715671   8.105340   9.043011
    18  C    5.911116   7.226854   7.481575   8.836572   9.823306
    19  C    5.826344   7.164881   7.474319   8.838857   9.793367
    20  H    4.719821   5.705922   7.023173   8.055789   7.984409
    21  H    3.106836   3.973107   5.335315   6.342222   6.271918
    22  H    3.918091   4.644561   5.873424   6.804208   6.723421
    23  H    2.157790   2.785716   3.244091   4.413250   5.066754
    24  H    2.170018   2.715901   3.765871   4.766412   4.945969
    25  H    1.096602   2.157629   3.367019   4.545179   4.828952
    26  H    1.096352   2.159243   2.664345   4.054285   4.832303
    27  H    2.751001   2.169828   1.086949   2.161599   3.416685
    28  H    4.711054   3.428109   2.169029   1.086291   2.158596
    29  H    4.708215   3.428175   3.897162   3.413790   2.158733
    30  H    2.745660   2.169546   3.421832   3.897623   3.416752
    31  H    4.341256   5.676810   6.265673   7.597148   8.317653
    32  H    3.358186   4.499189   4.793757   6.113161   7.003330
    33  H    5.659057   6.842363   6.955899   8.257049   9.297455
    34  H    6.867310   8.155418   8.321219   9.657986  10.706586
    35  H    6.206950   7.582930   7.988894   9.352891  10.240353
    36  H    5.505156   6.726362   6.933749   8.251409   9.236243
    37  H    6.111807   7.519065   7.997531   9.374489  10.219723
    38  H    6.797166   8.097331   8.299675   9.642501  10.668214
                   11         12         13         14         15
    11  Cl   0.000000
    12  C    2.742706   0.000000
    13  C    4.052686   1.407298   0.000000
    14  C    9.087878   6.982672   5.708121   0.000000
    15  C    9.625531   7.522309   6.218072   1.548892   0.000000
    16  O    9.241679   7.051937   5.730441   2.414519   1.220760
    17  N   10.747156   8.792910   7.531867   2.544777   1.411893
    18  C   11.493754   9.636386   8.412011   2.935038   2.523322
    19  C   11.476748   9.565374   8.321522   3.909986   2.497048
    20  H    9.550780   6.860292   5.610571   4.678112   5.258218
    21  H    7.876889   5.168383   3.865598   4.180714   4.699006
    22  H    8.243708   5.686047   4.529886   4.270440   5.255598
    23  H    6.697924   4.788996   3.739642   2.642936   3.780908
    24  H    6.568099   4.205307   3.023857   3.424295   4.480964
    25  H    6.556299   4.083535   2.711044   3.695281   3.811847
    26  H    6.559869   4.576970   3.407872   3.088340   3.123600
    27  H    4.904138   3.897765   3.421944   4.884096   5.194951
    28  H    2.877497   3.413668   3.896862   7.247150   7.665028
    29  H    2.877986   1.086328   2.168964   7.822625   8.386454
    30  H    4.904511   2.161829   1.087066   5.706302   6.213977
    31  H   10.011787   7.889136   6.617025   1.096713   2.163017
    32  H    8.661491   6.809500   5.655668   1.096465   2.152686
    33  H   10.915884   9.217801   8.073923   2.783159   2.807411
    34  H   12.354697  10.583935   9.380940   4.016765   3.427657
    35  H   11.933142   9.932909   8.661340   2.974107   2.840011
    36  H   10.876872   9.087239   7.910815   4.216810   2.755813
    37  H   11.930015   9.856385   8.557785   4.264872   2.815968
    38  H   12.324831  10.517563   9.302734   4.671800   3.411703
                   16         17         18         19         20
    16  O    0.000000
    17  N    2.288676   0.000000
    18  C    3.633896   1.475800   0.000000
    19  C    2.774013   1.475880   2.532260   0.000000
    20  H    5.046926   6.471731   7.096684   7.366295   0.000000
    21  H    4.277365   6.075312   6.903992   6.937443   1.813206
    22  H    5.216503   6.547478   7.040331   7.656258   1.801834
    23  H    4.077051   4.892642   5.280170   6.118814   5.003175
    24  H    4.477086   5.798913   6.345986   6.946942   3.658995
    25  H    3.135077   5.169784   6.239493   5.853829   4.165960
    26  H    2.732991   4.280936   5.272080   5.010343   5.437902
    27  H    5.046460   6.081075   6.786122   6.813838   7.386916
    28  H    7.442851   8.572567   9.233296   9.267647   9.060001
    29  H    7.873239   9.698479  10.555291  10.467255   7.106692
    30  H    5.664107   7.591811   8.504216   8.378474   4.779990
    31  H    3.177945   2.736981   2.660194   4.161865   4.768304
    32  H    3.028388   2.863584   3.035568   4.233802   5.541354
    33  H    3.974833   2.115645   1.097132   3.307060   7.282722
    34  H    4.414579   2.126772   1.097054   2.581261   8.110937
    35  H    3.957325   2.113028   1.097224   3.184819   6.629816
    36  H    2.700221   2.113581   3.315814   1.097319   7.651279
    37  H    2.842484   2.111664   3.173382   1.097256   7.036622
    38  H    3.845548   2.128533   2.586776   1.097006   8.323824
                   21         22         23         24         25
    21  H    0.000000
    22  H    1.721071   0.000000
    23  H    3.885087   3.737833   0.000000
    24  H    2.442972   2.217939   1.755738   0.000000
    25  H    2.486523   3.724982   3.062043   2.558513   0.000000
    26  H    3.952224   4.793720   2.470690   3.068841   1.756979
    27  H    5.786038   6.298641   3.164048   4.138548   3.683995
    28  H    7.365905   7.779752   5.086709   5.676968   5.483149
    29  H    5.507192   5.982676   5.656550   4.828345   4.796884
    30  H    3.073157   3.851300   4.019859   2.858887   2.546161
    31  H    4.675421   4.477724   3.388784   4.044794   4.647733
    32  H    4.853643   4.845590   2.256887   3.557972   4.009082
    33  H    6.952801   6.949748   4.729730   6.008627   6.169276
    34  H    7.940586   8.124616   6.299625   7.420445   7.185287
    35  H    6.710372   6.687198   5.461618   6.320023   6.453604
    36  H    6.976160   7.853732   6.062510   6.926788   5.541725
    37  H    6.772266   7.581518   6.579738   7.159109   5.947848
    38  H    7.969506   8.591582   6.908777   7.863170   6.898200
                   26         27         28         29         30
    26  H    0.000000
    27  H    2.454767   0.000000
    28  H    4.751339   2.492489   0.000000
    29  H    5.528368   4.984065   4.306530   0.000000
    30  H    3.747674   4.325252   4.983885   2.492762   0.000000
    31  H    4.179122   5.891818   8.210622   8.684429   6.538436
    32  H    2.983925   4.271164   6.614702   7.725742   5.851758
    33  H    5.025559   6.209835   8.583003  10.168342   8.271379
    34  H    6.143229   7.552839   9.983268  11.526159   9.506407
    35  H    5.731944   7.396498   9.830170  10.790620   8.636894
    36  H    4.585114   6.249804   8.633516  10.009863   8.051362
    37  H    5.412946   7.448874   9.893157  10.690260   8.482737
    38  H    5.942374   7.555788   9.990546  11.447562   9.405026
                   31         32         33         34         35
    31  H    0.000000
    32  H    1.769718   0.000000
    33  H    2.594110   2.499894   0.000000
    34  H    3.743437   4.047981   1.781955   0.000000
    35  H    2.328891   3.321891   1.791616   1.784303   0.000000
    36  H    4.711427   4.408341   3.855091   3.402486   4.098706
    37  H    4.437617   4.819059   4.088600   3.269230   3.515813
    38  H    4.774843   4.873765   3.383028   2.161809   3.299659
                   36         37         38
    36  H    0.000000
    37  H    1.789059   0.000000
    38  H    1.783812   1.787042   0.000000
 Stoichiometry    C14H19ClN2O2
 Framework group  C1[X(C14H19ClN2O2)]
 Deg. of freedom   108
 Full point group                 C1      NOp   1
 Largest Abelian subgroup         C1      NOp   1
 Largest concise Abelian subgroup C1      NOp   1
                         Standard orientation:                         
 ---------------------------------------------------------------------
 Center     Atomic      Atomic             Coordinates (Angstroms)
 Number     Number       Type             X           Y           Z
 ---------------------------------------------------------------------
      1          6           0        1.160213    3.428739    0.303722
      2          6           0        2.133962    2.348683   -0.158979
      3          8           0        3.330500    2.566356   -0.126113
      4          7           0        1.646568    1.104910   -0.615380
      5          6           0        0.205738    0.812062   -0.750368
      6          6           0       -0.396917    0.064106    0.455884
      7          6           0       -1.897841   -0.127856    0.300646
      8          6           0       -2.412977   -1.332342   -0.219445
      9          6           0       -3.801732   -1.502128   -0.371899
     10          6           0       -4.680229   -0.469694   -0.006542
     11         17           0       -6.413200   -0.682338   -0.199222
     12          6           0       -4.173936    0.733118    0.511142
     13          6           0       -2.785574    0.904705    0.664425
     14          6           0        2.614601    0.027423   -0.963806
     15          6           0        3.201439   -0.724353    0.256653
     16          8           0        2.695372   -0.615258    1.362207
     17          7           0        4.292146   -1.596416    0.048556
     18          6           0        4.989451   -1.673377   -1.249839
     19          6           0        4.857459   -2.344502    1.188297
     20          1           0        1.688596    4.289415    0.728136
     21          1           0        0.442052    3.003488    1.011398
     22          1           0        0.538347    3.735389   -0.543316
     23          1           0        0.067119    0.195541   -1.647317
     24          1           0       -0.350832    1.739242   -0.922802
     25          1           0       -0.184100    0.624585    1.374093
     26          1           0        0.098329   -0.908137    0.562939
     27          1           0       -1.739621   -2.136764   -0.503970
     28          1           0       -4.200289   -2.430485   -0.771062
     29          1           0       -4.859194    1.527647    0.792661
     30          1           0       -2.401148    1.838410    1.067072
     31          1           0        3.442466    0.472711   -1.528728
     32          1           0        2.132281   -0.714062   -1.611730
     33          1           0        4.273610   -1.930782   -2.040418
     34          1           0        5.772725   -2.441040   -1.223316
     35          1           0        5.451394   -0.704230   -1.476251
     36          1           0        4.063629   -2.921452    1.679288
     37          1           0        5.289984   -1.639277    1.909096
     38          1           0        5.639129   -3.036178    0.850661
 ---------------------------------------------------------------------
 Rotational constants (GHZ):      0.6324238      0.1231636      0.1091899
 Standard basis: 6-31G(d,p) (6D, 7F)
 There are   384 symmetry adapted basis functions of A   symmetry.
 Integral buffers will be    131072 words long.
 Raffenetti 2 integral format.
 Two-electron integral symmetry is turned on.
   384 basis functions,   689 primitive gaussians,   384 cartesian basis functions
    75 alpha electrons       75 beta electrons
       nuclear repulsion energy      1486.6753890891 Hartrees.
 NAtoms=   38 NActive=   38 NUniq=   38 SFac= 1.00D+00 NAtFMM=   60 NAOKFM=F Big=F
 One-electron integrals computed using PRISM.
 NBasis=   384 RedAO= T  NBF=   384
 NBsUse=   384 1.00D-06 NBFU=   384
 Harris functional with IExCor=  402 diagonalized for initial guess.
 ExpMin= 1.43D-01 ExpMax= 2.52D+04 ExpMxC= 3.78D+03 IAcc=1 IRadAn=         1 AccDes= 0.00D+00
 HarFok:  IExCor=  402 AccDes= 0.00D+00 IRadAn=         1 IDoV= 1
 ScaDFX=  1.000000  1.000000  1.000000  1.000000
 FoFCou: FMM=F IPFlag=           0 FMFlag=      100000 FMFlg1=           0
         NFxFlg=           0 DoJE=T BraDBF=F KetDBF=T FulRan=T
         Omega=  0.000000  0.000000  1.000000  0.000000  0.000000 ICntrl=     500 IOpCl=  0
         NMat0=    1 NMatS0=    1 NMatT0=    0 NMatD0=    1 NMtDS0=    0 NMtDT0=    0
         I1Cent=           4 NGrid=           0.
 Petite list used in FoFCou.
 Initial guess orbital symmetries:
       Occupied  (A) (A) (A) (A) (A) (A) (A) (A) (A) (A) (A) (A)
                 (A) (A) (A) (A) (A) (A) (A) (A) (A) (A) (A) (A)
                 (A) (A) (A) (A) (A) (A) (A) (A) (A) (A) (A) (A)
                 (A) (A) (A) (A) (A) (A) (A) (A) (A) (A) (A) (A)
                 (A) (A) (A) (A) (A) (A) (A) (A) (A) (A) (A) (A)
                 (A) (A) (A) (A) (A) (A) (A) (A) (A) (A) (A) (A)
                 (A) (A) (A)
       Virtual   (A) (A) (A) (A) (A) (A) (A) (A) (A) (A) (A) (A)
                 (A) (A) (A) (A) (A) (A) (A) (A) (A) (A) (A) (A)
                 (A) (A) (A) (A) (A) (A) (A) (A) (A) (A) (A) (A)
                 (A) (A) (A) (A) (A) (A) (A) (A) (A) (A) (A) (A)
                 (A) (A) (A) (A) (A) (A) (A) (A) (A) (A) (A) (A)
                 (A) (A) (A) (A) (A) (A) (A) (A) (A) (A) (A) (A)
                 (A) (A) (A) (A) (A) (A) (A) (A) (A) (A) (A) (A)
                 (A) (A) (A) (A) (A) (A) (A) (A) (A) (A) (A) (A)
                 (A) (A) (A) (A) (A) (A) (A) (A) (A) (A) (A) (A)
                 (A) (A) (A) (A) (A) (A) (A) (A) (A) (A) (A) (A)
                 (A) (A) (A) (A) (A) (A) (A) (A) (A) (A) (A) (A)
                 (A) (A) (A) (A) (A) (A) (A) (A) (A) (A) (A) (A)
                 (A) (A) (A) (A) (A) (A) (A) (A) (A) (A) (A) (A)
                 (A) (A) (A) (A) (A) (A) (A) (A) (A) (A) (A) (A)
                 (A) (A) (A) (A) (A) (A) (A) (A) (A) (A) (A) (A)
                 (A) (A) (A) (A) (A) (A) (A) (A) (A) (A) (A) (A)
                 (A) (A) (A) (A) (A) (A) (A) (A) (A) (A) (A) (A)
                 (A) (A) (A) (A) (A) (A) (A) (A) (A) (A) (A) (A)
                 (A) (A) (A) (A) (A) (A) (A) (A) (A) (A) (A) (A)
                 (A) (A) (A) (A) (A) (A) (A) (A) (A) (A) (A) (A)
                 (A) (A) (A) (A) (A) (A) (A) (A) (A) (A) (A) (A)
                 (A) (A) (A) (A) (A) (A) (A) (A) (A) (A) (A) (A)
                 (A) (A) (A) (A) (A) (A) (A) (A) (A) (A) (A) (A)
                 (A) (A) (A) (A) (A) (A) (A) (A) (A) (A) (A) (A)
                 (A) (A) (A) (A) (A) (A) (A) (A) (A) (A) (A) (A)
                 (A) (A) (A) (A) (A) (A) (A) (A) (A)
 The electronic state of the initial guess is 1-A.
 Requested convergence on RMS density matrix=1.00D-08 within 128 cycles.
 Requested convergence on MAX density matrix=1.00D-06.
 Requested convergence on             energy=1.00D-06.
 No special actions if energy rises.
 Integral accuracy reduced to 1.0D-05 until final iterations.
 Initial convergence to 1.0D-05 achieved.  Increase integral accuracy.
 SCF Done:  E(RB3LYP) =  -1265.12032837     A.U. after   15 cycles
             Convg  =    0.3743D-08             -V/T =  2.0076

 **********************************************************************

            Population analysis using the SCF density.

 **********************************************************************

 Orbital symmetries:
       Occupied  (A) (A) (A) (A) (A) (A) (A) (A) (A) (A) (A) (A)
                 (A) (A) (A) (A) (A) (A) (A) (A) (A) (A) (A) (A)
                 (A) (A) (A) (A) (A) (A) (A) (A) (A) (A) (A) (A)
                 (A) (A) (A) (A) (A) (A) (A) (A) (A) (A) (A) (A)
                 (A) (A) (A) (A) (A) (A) (A) (A) (A) (A) (A) (A)
                 (A) (A) (A) (A) (A) (A) (A) (A) (A) (A) (A) (A)
                 (A) (A) (A)
       Virtual   (A) (A) (A) (A) (A) (A) (A) (A) (A) (A) (A) (A)
                 (A) (A) (A) (A) (A) (A) (A) (A) (A) (A) (A) (A)
                 (A) (A) (A) (A) (A) (A) (A) (A) (A) (A) (A) (A)
                 (A) (A) (A) (A) (A) (A) (A) (A) (A) (A) (A) (A)
                 (A) (A) (A) (A) (A) (A) (A) (A) (A) (A) (A) (A)
                 (A) (A) (A) (A) (A) (A) (A) (A) (A) (A) (A) (A)
                 (A) (A) (A) (A) (A) (A) (A) (A) (A) (A) (A) (A)
                 (A) (A) (A) (A) (A) (A) (A) (A) (A) (A) (A) (A)
                 (A) (A) (A) (A) (A) (A) (A) (A) (A) (A) (A) (A)
                 (A) (A) (A) (A) (A) (A) (A) (A) (A) (A) (A) (A)
                 (A) (A) (A) (A) (A) (A) (A) (A) (A) (A) (A) (A)
                 (A) (A) (A) (A) (A) (A) (A) (A) (A) (A) (A) (A)
                 (A) (A) (A) (A) (A) (A) (A) (A) (A) (A) (A) (A)
                 (A) (A) (A) (A) (A) (A) (A) (A) (A) (A) (A) (A)
                 (A) (A) (A) (A) (A) (A) (A) (A) (A) (A) (A) (A)
                 (A) (A) (A) (A) (A) (A) (A) (A) (A) (A) (A) (A)
                 (A) (A) (A) (A) (A) (A) (A) (A) (A) (A) (A) (A)
                 (A) (A) (A) (A) (A) (A) (A) (A) (A) (A) (A) (A)
                 (A) (A) (A) (A) (A) (A) (A) (A) (A) (A) (A) (A)
                 (A) (A) (A) (A) (A) (A) (A) (A) (A) (A) (A) (A)
                 (A) (A) (A) (A) (A) (A) (A) (A) (A) (A) (A) (A)
                 (A) (A) (A) (A) (A) (A) (A) (A) (A) (A) (A) (A)
                 (A) (A) (A) (A) (A) (A) (A) (A) (A) (A) (A) (A)
                 (A) (A) (A) (A) (A) (A) (A) (A) (A) (A) (A) (A)
                 (A) (A) (A) (A) (A) (A) (A) (A) (A) (A) (A) (A)
                 (A) (A) (A) (A) (A) (A) (A) (A) (A)
 The electronic state is 1-A.
 Alpha  occ. eigenvalues -- -101.54924 -19.11213 -19.10655 -14.36454 -14.36369
 Alpha  occ. eigenvalues --  -10.28683 -10.28547 -10.25517 -10.23840 -10.23231
 Alpha  occ. eigenvalues --  -10.23162 -10.21971 -10.20857 -10.20815 -10.20792
 Alpha  occ. eigenvalues --  -10.20503 -10.20481 -10.19292 -10.19207  -9.46542
 Alpha  occ. eigenvalues --   -7.22940  -7.21968  -7.21940  -1.03259  -1.02505
 Alpha  occ. eigenvalues --   -0.92012  -0.91969  -0.88778  -0.84087  -0.78089
 Alpha  occ. eigenvalues --   -0.75655  -0.75596  -0.73044  -0.72087  -0.70452
 Alpha  occ. eigenvalues --   -0.67073  -0.63987  -0.62256  -0.58389  -0.56144
 Alpha  occ. eigenvalues --   -0.52487  -0.51116  -0.49872  -0.49698  -0.48564
 Alpha  occ. eigenvalues --   -0.47286  -0.46985  -0.46682  -0.45954  -0.44212
 Alpha  occ. eigenvalues --   -0.43336  -0.42820  -0.42169  -0.41879  -0.41507
 Alpha  occ. eigenvalues --   -0.41233  -0.40566  -0.40403  -0.40071  -0.38615
 Alpha  occ. eigenvalues --   -0.38555  -0.37798  -0.37037  -0.35784  -0.35284
 Alpha  occ. eigenvalues --   -0.34843  -0.34028  -0.32669  -0.31261  -0.26209
 Alpha  occ. eigenvalues --   -0.25513  -0.24573  -0.24111  -0.23467  -0.23133
 Alpha virt. eigenvalues --   -0.01788  -0.01489   0.02225   0.02806   0.03134
 Alpha virt. eigenvalues --    0.07168   0.07894   0.09030   0.10351   0.11071
 Alpha virt. eigenvalues --    0.11482   0.12232   0.12607   0.13605   0.13944
 Alpha virt. eigenvalues --    0.14632   0.14904   0.15566   0.16667   0.16914
 Alpha virt. eigenvalues --    0.17567   0.17752   0.18082   0.18851   0.19228
 Alpha virt. eigenvalues --    0.20265   0.21396   0.22577   0.23139   0.23645
 Alpha virt. eigenvalues --    0.25320   0.26525   0.26886   0.27765   0.27943
 Alpha virt. eigenvalues --    0.31592   0.32370   0.33100   0.35316   0.37261
 Alpha virt. eigenvalues --    0.38604   0.40222   0.41507   0.42037   0.44497
 Alpha virt. eigenvalues --    0.45733   0.47937   0.48406   0.48690   0.49293
 Alpha virt. eigenvalues --    0.50413   0.50576   0.52322   0.53339   0.54213
 Alpha virt. eigenvalues --    0.55472   0.55955   0.56688   0.57218   0.57795
 Alpha virt. eigenvalues --    0.58348   0.58939   0.59689   0.59907   0.60725
 Alpha virt. eigenvalues --    0.61288   0.61633   0.62528   0.63931   0.64814
 Alpha virt. eigenvalues --    0.64987   0.65560   0.68161   0.68407   0.70208
 Alpha virt. eigenvalues --    0.70272   0.72667   0.73431   0.74017   0.74813
 Alpha virt. eigenvalues --    0.76707   0.77141   0.78853   0.79438   0.79999
 Alpha virt. eigenvalues --    0.80500   0.80798   0.82206   0.82341   0.83303
 Alpha virt. eigenvalues --    0.83544   0.84208   0.85511   0.85996   0.86240
 Alpha virt. eigenvalues --    0.86862   0.87356   0.87919   0.88311   0.89151
 Alpha virt. eigenvalues --    0.89746   0.90422   0.90813   0.91981   0.92172
 Alpha virt. eigenvalues --    0.92676   0.93847   0.94948   0.95877   0.96300
 Alpha virt. eigenvalues --    0.96855   0.98239   0.99479   0.99860   1.01426
 Alpha virt. eigenvalues --    1.03506   1.03843   1.05435   1.07762   1.09427
 Alpha virt. eigenvalues --    1.11230   1.12571   1.14159   1.14806   1.15095
 Alpha virt. eigenvalues --    1.16045   1.18357   1.24107   1.25274   1.25489
 Alpha virt. eigenvalues --    1.27966   1.28706   1.30680   1.32909   1.33490
 Alpha virt. eigenvalues --    1.34795   1.35466   1.36645   1.37987   1.38391
 Alpha virt. eigenvalues --    1.38896   1.39168   1.40362   1.42813   1.45191
 Alpha virt. eigenvalues --    1.47607   1.49029   1.52876   1.53324   1.55594
 Alpha virt. eigenvalues --    1.59766   1.62087   1.63828   1.65410   1.68948
 Alpha virt. eigenvalues --    1.69620   1.72198   1.73232   1.74674   1.75039
 Alpha virt. eigenvalues --    1.76525   1.77718   1.78240   1.78667   1.79918
 Alpha virt. eigenvalues --    1.80683   1.82603   1.82978   1.84981   1.85897
 Alpha virt. eigenvalues --    1.86279   1.87946   1.89459   1.90311   1.90993
 Alpha virt. eigenvalues --    1.91109   1.91618   1.92563   1.92829   1.94177
 Alpha virt. eigenvalues --    1.95087   1.96150   1.97283   1.98087   1.98626
 Alpha virt. eigenvalues --    2.00487   2.02088   2.02711   2.02851   2.03834
 Alpha virt. eigenvalues --    2.04776   2.05193   2.05427   2.06162   2.08279
 Alpha virt. eigenvalues --    2.08944   2.10067   2.11222   2.11947   2.13344
 Alpha virt. eigenvalues --    2.15088   2.15990   2.17815   2.18568   2.20975
 Alpha virt. eigenvalues --    2.22427   2.23005   2.27014   2.28575   2.28786
 Alpha virt. eigenvalues --    2.29239   2.30358   2.31297   2.31986   2.32881
 Alpha virt. eigenvalues --    2.34692   2.35482   2.36395   2.37603   2.40084
 Alpha virt. eigenvalues --    2.41204   2.42899   2.43642   2.44772   2.45858
 Alpha virt. eigenvalues --    2.46989   2.47794   2.50277   2.50920   2.52972
 Alpha virt. eigenvalues --    2.54461   2.54857   2.56386   2.58039   2.59087
 Alpha virt. eigenvalues --    2.60113   2.61350   2.61817   2.62490   2.63694
 Alpha virt. eigenvalues --    2.65391   2.66584   2.66794   2.69499   2.70285
 Alpha virt. eigenvalues --    2.71169   2.72281   2.72655   2.74315   2.76293
 Alpha virt. eigenvalues --    2.78184   2.79345   2.81109   2.82433   2.84199
 Alpha virt. eigenvalues --    2.85027   2.86886   2.87079   2.87943   2.89357
 Alpha virt. eigenvalues --    2.90840   2.92604   2.97247   3.00450   3.03473
 Alpha virt. eigenvalues --    3.07896   3.09596   3.10673   3.13570   3.16952
 Alpha virt. eigenvalues --    3.17162   3.22341   3.23154   3.23401   3.26084
 Alpha virt. eigenvalues --    3.27923   3.30992   3.33661   3.38364   3.39436
 Alpha virt. eigenvalues --    3.40964   3.41968   3.42986   3.43968   3.44134
 Alpha virt. eigenvalues --    3.44912   3.46881   3.48837   3.55676   3.76033
 Alpha virt. eigenvalues --    3.96385   4.06786   4.07195   4.08615   4.12333
 Alpha virt. eigenvalues --    4.14558   4.17938   4.27696   4.30566   4.36848
 Alpha virt. eigenvalues --    4.38744   4.41962   4.46471   4.47928   4.50455
 Alpha virt. eigenvalues --    4.62162   4.68054   4.74932   4.79159
          Condensed to atoms (all electrons):
              1          2          3          4          5          6
     1  C    5.151873   0.348719  -0.082080  -0.114717   0.001681  -0.001150
     2  C    0.348719   4.346856   0.595752   0.238838  -0.021021  -0.000744
     3  O   -0.082080   0.595752   8.060336  -0.099557   0.002395  -0.000038
     4  N   -0.114717   0.238838  -0.099557   7.102876   0.263003  -0.058234
     5  C    0.001681  -0.021021   0.002395   0.263003   4.868143   0.337001
     6  C   -0.001150  -0.000744  -0.000038  -0.058234   0.337001   5.118609
     7  C   -0.000058   0.000090   0.000000   0.004185  -0.039966   0.297189
     8  C   -0.000002   0.000000   0.000000   0.000016  -0.003091  -0.047079
     9  C    0.000000   0.000000   0.000000   0.000001  -0.000060   0.006022
    10  C    0.000000   0.000000   0.000000   0.000000   0.000016   0.000349
    11  Cl   0.000000   0.000000   0.000000   0.000000   0.000000   0.000005
    12  C    0.000001   0.000000   0.000000   0.000001   0.000018   0.005622
    13  C   -0.000070  -0.000003   0.000000   0.000068  -0.005027  -0.051415
    14  C    0.005712  -0.027922   0.004684   0.284471  -0.032839  -0.001758
    15  C   -0.000147   0.001815   0.001638  -0.047103  -0.000365   0.001710
    16  O   -0.000026   0.005363  -0.000851   0.001074  -0.002712   0.002721
    17  N   -0.000001   0.000181  -0.000146   0.002043  -0.000151   0.000081
    18  C    0.000000  -0.000061  -0.000036   0.000136   0.000011  -0.000003
    19  C    0.000000  -0.000011   0.000002  -0.000058   0.000003  -0.000003
    20  H    0.373829  -0.018964   0.003625   0.003551   0.000194   0.000007
    21  H    0.356664  -0.024887   0.001901   0.003161  -0.000895   0.000426
    22  H    0.357279  -0.022992   0.001228   0.002920  -0.003027   0.000101
    23  H   -0.000328   0.002320  -0.000084  -0.035931   0.377542  -0.054740
    24  H    0.004764  -0.007679   0.000130  -0.033093   0.383315  -0.050768
    25  H   -0.001300   0.001796  -0.000062  -0.000602  -0.036871   0.377787
    26  H    0.000061  -0.000200   0.000004  -0.002243  -0.030997   0.369836
    27  H    0.000000   0.000000   0.000000  -0.000022   0.000121  -0.008175
    28  H    0.000000   0.000000   0.000000   0.000000  -0.000001  -0.000145
    29  H    0.000000   0.000000   0.000000   0.000000  -0.000002  -0.000144
    30  H    0.000068  -0.000022   0.000000  -0.000041   0.000035  -0.007440
    31  H    0.000416  -0.002117   0.013341  -0.038133   0.002168  -0.000091
    32  H   -0.000073   0.004588   0.000575  -0.032066  -0.004308  -0.000697
    33  H    0.000000  -0.000008   0.000001   0.000026  -0.000004  -0.000001
    34  H    0.000000   0.000000   0.000000  -0.000003   0.000000   0.000000
    35  H    0.000000   0.000039   0.000027   0.000045   0.000000   0.000000
    36  H    0.000000  -0.000001   0.000000  -0.000003   0.000000  -0.000003
    37  H    0.000000   0.000004  -0.000001   0.000003   0.000000   0.000000
    38  H    0.000000   0.000000   0.000000   0.000001   0.000000   0.000000
              7          8          9         10         11         12
     1  C   -0.000058  -0.000002   0.000000   0.000000   0.000000   0.000001
     2  C    0.000090   0.000000   0.000000   0.000000   0.000000   0.000000
     3  O    0.000000   0.000000   0.000000   0.000000   0.000000   0.000000
     4  N    0.004185   0.000016   0.000001   0.000000   0.000000   0.000001
     5  C   -0.039966  -0.003091  -0.000060   0.000016   0.000000   0.000018
     6  C    0.297189  -0.047079   0.006022   0.000349   0.000005   0.005622
     7  C    4.779035   0.541436  -0.025427  -0.031469   0.000512  -0.024501
     8  C    0.541436   4.887502   0.501774  -0.037527   0.003826  -0.039448
     9  C   -0.025427   0.501774   4.876798   0.526606  -0.065122  -0.034139
    10  C   -0.031469  -0.037527   0.526606   4.984955   0.235402   0.525988
    11  Cl   0.000512   0.003826  -0.065122   0.235402  16.908634  -0.064991
    12  C   -0.024501  -0.039448  -0.034139   0.525988  -0.064991   4.872037
    13  C    0.534980  -0.040165  -0.040045  -0.037334   0.003862   0.504943
    14  C   -0.000278  -0.000001   0.000000   0.000000   0.000000   0.000000
    15  C    0.000051  -0.000003   0.000000   0.000000   0.000000   0.000000
    16  O    0.000312  -0.000006   0.000000   0.000000   0.000000   0.000000
    17  N    0.000001   0.000000   0.000000   0.000000   0.000000   0.000000
    18  C    0.000000   0.000000   0.000000   0.000000   0.000000   0.000000
    19  C    0.000000   0.000000   0.000000   0.000000   0.000000   0.000000
    20  H    0.000000   0.000000   0.000000   0.000000   0.000000   0.000000
    21  H   -0.000150   0.000002   0.000000   0.000000   0.000000   0.000003
    22  H   -0.000003   0.000000   0.000000   0.000000   0.000000   0.000000
    23  H    0.002111   0.003356  -0.000111  -0.000007   0.000000  -0.000005
    24  H   -0.000685   0.000008   0.000001  -0.000008   0.000000  -0.000204
    25  H   -0.030744   0.002928  -0.000215   0.000009   0.000000   0.000157
    26  H   -0.029116  -0.005484   0.000159   0.000011   0.000000  -0.000222
    27  H   -0.042991   0.369627  -0.041680   0.004662  -0.000149   0.000334
    28  H    0.003771  -0.031909   0.368592  -0.042678  -0.000655   0.004086
    29  H    0.003682   0.000760   0.004051  -0.042343  -0.000642   0.368690
    30  H   -0.044269   0.005062   0.000368   0.004565  -0.000149  -0.040291
    31  H    0.000008   0.000000   0.000000   0.000000   0.000000   0.000000
    32  H    0.000020   0.000001   0.000000   0.000000   0.000000   0.000000
    33  H    0.000000   0.000000   0.000000   0.000000   0.000000   0.000000
    34  H    0.000000   0.000000   0.000000   0.000000   0.000000   0.000000
    35  H    0.000000   0.000000   0.000000   0.000000   0.000000   0.000000
    36  H    0.000000   0.000000   0.000000   0.000000   0.000000   0.000000
    37  H    0.000000   0.000000   0.000000   0.000000   0.000000   0.000000
    38  H    0.000000   0.000000   0.000000   0.000000   0.000000   0.000000
             13         14         15         16         17         18
     1  C   -0.000070   0.005712  -0.000147  -0.000026  -0.000001   0.000000
     2  C   -0.000003  -0.027922   0.001815   0.005363   0.000181  -0.000061
     3  O    0.000000   0.004684   0.001638  -0.000851  -0.000146  -0.000036
     4  N    0.000068   0.284471  -0.047103   0.001074   0.002043   0.000136
     5  C   -0.005027  -0.032839  -0.000365  -0.002712  -0.000151   0.000011
     6  C   -0.051415  -0.001758   0.001710   0.002721   0.000081  -0.000003
     7  C    0.534980  -0.000278   0.000051   0.000312   0.000001   0.000000
     8  C   -0.040165  -0.000001  -0.000003  -0.000006   0.000000   0.000000
     9  C   -0.040045   0.000000   0.000000   0.000000   0.000000   0.000000
    10  C   -0.037334   0.000000   0.000000   0.000000   0.000000   0.000000
    11  Cl   0.003862   0.000000   0.000000   0.000000   0.000000   0.000000
    12  C    0.504943   0.000000   0.000000   0.000000   0.000000   0.000000
    13  C    4.894438   0.000001  -0.000001  -0.000001   0.000000   0.000000
    14  C    0.000001   5.067954   0.293499  -0.086342  -0.109772   0.003084
    15  C   -0.000001   0.293499   4.442586   0.580072   0.260481  -0.027753
    16  O   -0.000001  -0.086342   0.580072   8.071377  -0.098175   0.002689
    17  N    0.000000  -0.109772   0.260481  -0.098175   7.080764   0.280797
    18  C    0.000000   0.003084  -0.027753   0.002689   0.280797   4.805073
    19  C    0.000000   0.005636  -0.019445   0.009017   0.278111  -0.047992
    20  H    0.000000  -0.000097   0.000001   0.000000   0.000000   0.000000
    21  H   -0.000037  -0.000190  -0.000002   0.000022   0.000000   0.000000
    22  H   -0.000026  -0.000218   0.000007   0.000000   0.000000   0.000000
    23  H    0.000030  -0.008117  -0.000503   0.000026   0.000008   0.000002
    24  H    0.005117   0.003351  -0.000115  -0.000020   0.000001   0.000000
    25  H   -0.005179  -0.000647   0.000181   0.001277   0.000006   0.000000
    26  H    0.003732   0.002266   0.000778   0.005736  -0.000088  -0.000001
    27  H    0.005250  -0.000001  -0.000001   0.000000   0.000000   0.000000
    28  H    0.000731   0.000000   0.000000   0.000000   0.000000   0.000000
    29  H   -0.031937   0.000000   0.000000   0.000000   0.000000   0.000000
    30  H    0.369411   0.000000   0.000000   0.000000   0.000000   0.000000
    31  H    0.000000   0.362920  -0.034390   0.001945   0.001587   0.002146
    32  H    0.000000   0.363815  -0.037659   0.000220   0.002634  -0.001235
    33  H    0.000000   0.001289  -0.005641   0.000033  -0.043119   0.385530
    34  H    0.000000  -0.000129   0.002243  -0.000076  -0.025984   0.385328
    35  H    0.000000   0.000169  -0.004490   0.000056  -0.046589   0.388225
    36  H    0.000000   0.000064  -0.003484   0.005666  -0.041263   0.003738
    37  H    0.000000  -0.000025  -0.004469   0.003063  -0.045522   0.002915
    38  H    0.000000  -0.000039   0.004344   0.000559  -0.030655  -0.007378
             19         20         21         22         23         24
     1  C    0.000000   0.373829   0.356664   0.357279  -0.000328   0.004764
     2  C   -0.000011  -0.018964  -0.024887  -0.022992   0.002320  -0.007679
     3  O    0.000002   0.003625   0.001901   0.001228  -0.000084   0.000130
     4  N   -0.000058   0.003551   0.003161   0.002920  -0.035931  -0.033093
     5  C    0.000003   0.000194  -0.000895  -0.003027   0.377542   0.383315
     6  C   -0.000003   0.000007   0.000426   0.000101  -0.054740  -0.050768
     7  C    0.000000   0.000000  -0.000150  -0.000003   0.002111  -0.000685
     8  C    0.000000   0.000000   0.000002   0.000000   0.003356   0.000008
     9  C    0.000000   0.000000   0.000000   0.000000  -0.000111   0.000001
    10  C    0.000000   0.000000   0.000000   0.000000  -0.000007  -0.000008
    11  Cl   0.000000   0.000000   0.000000   0.000000   0.000000   0.000000
    12  C    0.000000   0.000000   0.000003   0.000000  -0.000005  -0.000204
    13  C    0.000000   0.000000  -0.000037  -0.000026   0.000030   0.005117
    14  C    0.005636  -0.000097  -0.000190  -0.000218  -0.008117   0.003351
    15  C   -0.019445   0.000001  -0.000002   0.000007  -0.000503  -0.000115
    16  O    0.009017   0.000000   0.000022   0.000000   0.000026  -0.000020
    17  N    0.278111   0.000000   0.000000   0.000000   0.000008   0.000001
    18  C   -0.047992   0.000000   0.000000   0.000000   0.000002   0.000000
    19  C    4.774262   0.000000   0.000000   0.000000   0.000000   0.000000
    20  H    0.000000   0.531653  -0.020735  -0.020946  -0.000006   0.000019
    21  H    0.000000  -0.020735   0.589313  -0.034443   0.000182  -0.001701
    22  H    0.000000  -0.020946  -0.034443   0.588668   0.000142   0.003013
    23  H    0.000000  -0.000006   0.000182   0.000142   0.632190  -0.030245
    24  H    0.000000   0.000019  -0.001701   0.003013  -0.030245   0.610972
    25  H    0.000000  -0.000018   0.003531   0.000024   0.005933  -0.004169
    26  H   -0.000005   0.000000  -0.000061  -0.000004  -0.006449   0.005490
    27  H    0.000000   0.000000   0.000000   0.000000   0.000410   0.000036
    28  H    0.000000   0.000000   0.000000   0.000000   0.000001   0.000000
    29  H    0.000000   0.000000   0.000000   0.000000   0.000000   0.000004
    30  H    0.000000  -0.000001   0.001209   0.000046   0.000031   0.000826
    31  H   -0.000226  -0.000007  -0.000012  -0.000026   0.000569  -0.000148
    32  H   -0.000175   0.000001  -0.000008   0.000000   0.006107   0.000263
    33  H    0.003460   0.000000   0.000000   0.000000  -0.000003   0.000000
    34  H   -0.007606   0.000000   0.000000   0.000000   0.000000   0.000000
    35  H    0.002918   0.000000   0.000000   0.000000   0.000000   0.000000
    36  H    0.389295   0.000000   0.000000   0.000000   0.000000   0.000000
    37  H    0.393487   0.000000   0.000000   0.000000   0.000000   0.000000
    38  H    0.378689   0.000000   0.000000   0.000000   0.000000   0.000000
             25         26         27         28         29         30
     1  C   -0.001300   0.000061   0.000000   0.000000   0.000000   0.000068
     2  C    0.001796  -0.000200   0.000000   0.000000   0.000000  -0.000022
     3  O   -0.000062   0.000004   0.000000   0.000000   0.000000   0.000000
     4  N   -0.000602  -0.002243  -0.000022   0.000000   0.000000  -0.000041
     5  C   -0.036871  -0.030997   0.000121  -0.000001  -0.000002   0.000035
     6  C    0.377787   0.369836  -0.008175  -0.000145  -0.000144  -0.007440
     7  C   -0.030744  -0.029116  -0.042991   0.003771   0.003682  -0.044269
     8  C    0.002928  -0.005484   0.369627  -0.031909   0.000760   0.005062
     9  C   -0.000215   0.000159  -0.041680   0.368592   0.004051   0.000368
    10  C    0.000009   0.000011   0.004662  -0.042678  -0.042343   0.004565
    11  Cl   0.000000   0.000000  -0.000149  -0.000655  -0.000642  -0.000149
    12  C    0.000157  -0.000222   0.000334   0.004086   0.368690  -0.040291
    13  C   -0.005179   0.003732   0.005250   0.000731  -0.031937   0.369411
    14  C   -0.000647   0.002266  -0.000001   0.000000   0.000000   0.000000
    15  C    0.000181   0.000778  -0.000001   0.000000   0.000000   0.000000
    16  O    0.001277   0.005736   0.000000   0.000000   0.000000   0.000000
    17  N    0.000006  -0.000088   0.000000   0.000000   0.000000   0.000000
    18  C    0.000000  -0.000001   0.000000   0.000000   0.000000   0.000000
    19  C    0.000000  -0.000005   0.000000   0.000000   0.000000   0.000000
    20  H   -0.000018   0.000000   0.000000   0.000000   0.000000  -0.000001
    21  H    0.003531  -0.000061   0.000000   0.000000   0.000000   0.001209
    22  H    0.000024  -0.000004   0.000000   0.000000   0.000000   0.000046
    23  H    0.005933  -0.006449   0.000410   0.000001   0.000000   0.000031
    24  H   -0.004169   0.005490   0.000036   0.000000   0.000004   0.000826
    25  H    0.590015  -0.031014   0.000058   0.000002  -0.000003   0.003168
    26  H   -0.031014   0.593175   0.004954  -0.000005   0.000002   0.000061
    27  H    0.000058   0.004954   0.623022  -0.005833   0.000014  -0.000175
    28  H    0.000002  -0.000005  -0.005833   0.596321  -0.000182   0.000014
    29  H   -0.000003   0.000002   0.000014  -0.000182   0.595044  -0.005722
    30  H    0.003168   0.000061  -0.000175   0.000014  -0.005722   0.621461
    31  H    0.000000   0.000023   0.000000   0.000000   0.000000   0.000000
    32  H    0.000051   0.000036   0.000024   0.000000   0.000000   0.000000
    33  H    0.000000   0.000005   0.000000   0.000000   0.000000   0.000000
    34  H    0.000000   0.000000   0.000000   0.000000   0.000000   0.000000
    35  H    0.000000  -0.000001   0.000000   0.000000   0.000000   0.000000
    36  H    0.000000   0.000025   0.000000   0.000000   0.000000   0.000000
    37  H    0.000000  -0.000002   0.000000   0.000000   0.000000   0.000000
    38  H    0.000000   0.000000   0.000000   0.000000   0.000000   0.000000
             31         32         33         34         35         36
     1  C    0.000416  -0.000073   0.000000   0.000000   0.000000   0.000000
     2  C   -0.002117   0.004588  -0.000008   0.000000   0.000039  -0.000001
     3  O    0.013341   0.000575   0.000001   0.000000   0.000027   0.000000
     4  N   -0.038133  -0.032066   0.000026  -0.000003   0.000045  -0.000003
     5  C    0.002168  -0.004308  -0.000004   0.000000   0.000000   0.000000
     6  C   -0.000091  -0.000697  -0.000001   0.000000   0.000000  -0.000003
     7  C    0.000008   0.000020   0.000000   0.000000   0.000000   0.000000
     8  C    0.000000   0.000001   0.000000   0.000000   0.000000   0.000000
     9  C    0.000000   0.000000   0.000000   0.000000   0.000000   0.000000
    10  C    0.000000   0.000000   0.000000   0.000000   0.000000   0.000000
    11  Cl   0.000000   0.000000   0.000000   0.000000   0.000000   0.000000
    12  C    0.000000   0.000000   0.000000   0.000000   0.000000   0.000000
    13  C    0.000000   0.000000   0.000000   0.000000   0.000000   0.000000
    14  C    0.362920   0.363815   0.001289  -0.000129   0.000169   0.000064
    15  C   -0.034390  -0.037659  -0.005641   0.002243  -0.004490  -0.003484
    16  O    0.001945   0.000220   0.000033  -0.000076   0.000056   0.005666
    17  N    0.001587   0.002634  -0.043119  -0.025984  -0.046589  -0.041263
    18  C    0.002146  -0.001235   0.385530   0.385328   0.388225   0.003738
    19  C   -0.000226  -0.000175   0.003460  -0.007606   0.002918   0.389295
    20  H   -0.000007   0.000001   0.000000   0.000000   0.000000   0.000000
    21  H   -0.000012  -0.000008   0.000000   0.000000   0.000000   0.000000
    22  H   -0.000026   0.000000   0.000000   0.000000   0.000000   0.000000
    23  H    0.000569   0.006107  -0.000003   0.000000   0.000000   0.000000
    24  H   -0.000148   0.000263   0.000000   0.000000   0.000000   0.000000
    25  H    0.000000   0.000051   0.000000   0.000000   0.000000   0.000000
    26  H    0.000023   0.000036   0.000005   0.000000  -0.000001   0.000025
    27  H    0.000000   0.000024   0.000000   0.000000   0.000000   0.000000
    28  H    0.000000   0.000000   0.000000   0.000000   0.000000   0.000000
    29  H    0.000000   0.000000   0.000000   0.000000   0.000000   0.000000
    30  H    0.000000   0.000000   0.000000   0.000000   0.000000   0.000000
    31  H    0.567517  -0.025271  -0.001345   0.000154   0.002611  -0.000009
    32  H   -0.025271   0.598110   0.002619   0.000005  -0.000284   0.000008
    33  H   -0.001345   0.002619   0.608573  -0.027017  -0.042951  -0.000004
    34  H    0.000154   0.000005  -0.027017   0.578307  -0.030025   0.000327
    35  H    0.002611  -0.000284  -0.042951  -0.030025   0.593351  -0.000298
    36  H   -0.000009   0.000008  -0.000004   0.000327  -0.000298   0.577183
    37  H    0.000004  -0.000008  -0.000300  -0.000015   0.000605  -0.036698
    38  H   -0.000005   0.000002   0.000398   0.004292   0.000022  -0.029608
             37         38
     1  C    0.000000   0.000000
     2  C    0.000004   0.000000
     3  O   -0.000001   0.000000
     4  N    0.000003   0.000001
     5  C    0.000000   0.000000
     6  C    0.000000   0.000000
     7  C    0.000000   0.000000
     8  C    0.000000   0.000000
     9  C    0.000000   0.000000
    10  C    0.000000   0.000000
    11  Cl   0.000000   0.000000
    12  C    0.000000   0.000000
    13  C    0.000000   0.000000
    14  C   -0.000025  -0.000039
    15  C   -0.004469   0.004344
    16  O    0.003063   0.000559
    17  N   -0.045522  -0.030655
    18  C    0.002915  -0.007378
    19  C    0.393487   0.378689
    20  H    0.000000   0.000000
    21  H    0.000000   0.000000
    22  H    0.000000   0.000000
    23  H    0.000000   0.000000
    24  H    0.000000   0.000000
    25  H    0.000000   0.000000
    26  H   -0.000002   0.000000
    27  H    0.000000   0.000000
    28  H    0.000000   0.000000
    29  H    0.000000   0.000000
    30  H    0.000000   0.000000
    31  H    0.000004  -0.000005
    32  H   -0.000008   0.000002
    33  H   -0.000300   0.000398
    34  H   -0.000015   0.004292
    35  H    0.000605   0.000022
    36  H   -0.036698  -0.029608
    37  H    0.584237  -0.033867
    38  H   -0.033867   0.608920
 Mulliken atomic charges:
              1
     1  C   -0.401112
     2  C    0.580272
     3  O   -0.502785
     4  N   -0.444613
     5  C   -0.054311
     6  C   -0.234837
     7  C    0.102273
     8  C   -0.111581
     9  C   -0.077571
    10  C   -0.091197
    11  Cl  -0.020533
    12  C   -0.078079
    13  C   -0.111324
    14  C   -0.130538
    15  C    0.596163
    16  O   -0.503020
    17  N   -0.465229
    18  C   -0.175216
    19  C   -0.159356
    20  H    0.147892
    21  H    0.126707
    22  H    0.128258
    23  H    0.105568
    24  H    0.111525
    25  H    0.123902
    26  H    0.119537
    27  H    0.090515
    28  H    0.107889
    29  H    0.108727
    30  H    0.091785
    31  H    0.146372
    32  H    0.122708
    33  H    0.118459
    34  H    0.120197
    35  H    0.136571
    36  H    0.135066
    37  H    0.136588
    38  H    0.104326
 Sum of Mulliken atomic charges =   0.00000
 Mulliken charges with hydrogens summed into heavy atoms:
              1
     1  C    0.001746
     2  C    0.580272
     3  O   -0.502785
     4  N   -0.444613
     5  C    0.162782
     6  C    0.008601
     7  C    0.102273
     8  C   -0.021066
     9  C    0.030318
    10  C   -0.091197
    11  Cl  -0.020533
    12  C    0.030648
    13  C   -0.019539
    14  C    0.138542
    15  C    0.596163
    16  O   -0.503020
    17  N   -0.465229
    18  C    0.200011
    19  C    0.216625
 Sum of Mulliken charges with hydrogens summed into heavy atoms =   0.00000
 Electronic spatial extent (au):  <R**2>=           9333.1507
 Charge=              0.0000 electrons
 Dipole moment (field-independent basis, Debye):
    X=              1.4026    Y=             -2.0967    Z=             -2.5789  Tot=              3.6076
 Quadrupole moment (field-independent basis, Debye-Ang):
   XX=           -128.0517   YY=           -112.0091   ZZ=           -120.8398
   XY=            -20.9686   XZ=             -7.8711   YZ=              4.7511
 Traceless Quadrupole moment (field-independent basis, Debye-Ang):
   XX=             -7.7515   YY=              8.2911   ZZ=             -0.5396
   XY=            -20.9686   XZ=             -7.8711   YZ=              4.7511
 Octapole moment (field-independent basis, Debye-Ang**2):
  XXX=            179.3970  YYY=             -7.2452  ZZZ=             -4.2785  XYY=             -5.8072
  XXY=            -77.1769  XXZ=            -14.5348  XZZ=             15.4185  YZZ=              1.2181
  YYZ=              4.5986  XYZ=             -3.8226
 Hexadecapole moment (field-independent basis, Debye-Ang**3):
 XXXX=          -9926.9615 YYYY=          -1800.6952 ZZZZ=           -514.1828 XXXY=           -518.6166
 XXXZ=            -67.2358 YYYX=            -78.0823 YYYZ=             15.1603 ZZZX=              2.2544
 ZZZY=              1.0724 XXYY=          -1898.7715 XXZZ=          -1720.6215 YYZZ=           -384.5462
 XXYZ=             43.4254 YYXZ=             27.2854 ZZXY=             -8.9303
 N-N= 1.486675389089D+03 E-N=-5.937584151544D+03  KE= 1.255549147996D+03
 1\1\GINC-C03\SP\RB3LYP\6-31G(d,p)\C14H19Cl1N2O2\TUU61186\04-Mar-2026\0
 \\# b3lyp/6-31g(d,p)\\Generated by mdgx\\0,1\C,0,14.8218921,14.2048177
 ,12.5648794\C,0,16.3181441,13.9921466,12.7765405\O,0,17.096893,14.2865
 283,11.8893789\N,0,16.7921364,13.4632383,13.9965453\C,0,15.8911568,13.
 0163669,15.0775242\C,0,15.6604097,14.072502,16.1770726\C,0,14.6552803,
 13.5905122,17.2120226\C,0,15.0958675,12.9925702,18.4099352\C,0,14.1627
 12,12.5378522,19.3602834\C,0,12.7870427,12.6778125,19.1171652\Cl,0,11.
 6235294,12.1080267,20.3033828\C,0,12.341146,13.2714708,17.9255985\C,0,
 13.2727408,13.7268737,16.9741641\C,0,18.2609564,13.360621,14.2234902\C
 ,0,18.9428103,14.6957518,14.6128064\O,0,18.279824,15.6583582,14.965076
 \N,0,20.3535114,14.7531924,14.6207893\C,0,21.1798093,13.6446154,14.104
 77\C,0,21.0317494,16.0047815,15.0103271\H,0,14.6201696,14.7192429,11.6
 189657\H,0,14.398382,14.7429074,13.4184005\H,0,14.3158126,13.2346197,1
 2.5935762\H,0,16.33116,12.1234239,15.5389143\H,0,14.9281191,12.7059822
 ,14.6587341\H,0,15.3077075,15.0038066,15.7179339\H,0,16.6162858,14.306
 3873,16.6603791\H,0,16.1591567,12.8811805,18.6060663\H,0,14.5008125,12
 .0783041,20.2846917\H,0,11.2753506,13.377473,17.7440707\H,0,12.9198619
 ,14.186562,16.0544489\H,0,18.7295612,12.9857189,13.305537\H,0,18.46697
 32,12.6362649,15.0204227\H,0,20.9367086,12.7196313,14.6423624\H,0,22.2
 464875,13.86016,14.2435695\H,0,20.9828941,13.5077643,13.034071\H,0,20.
 6838531,16.3178082,16.0028446\H,0,20.7960472,16.7897843,14.2808161\H,0
 ,22.1190452,15.8635402,15.0458437\\Version=EM64L-G09RevC.01\State=1-A\
 HF=-1265.1203284\RMSD=3.743e-09\Dipole=1.1197597,-0.8496615,0.1966911\
 Quadrupole=16.0747478,-3.2057276,-12.8690202,-4.7018836,8.415118,3.921
 8531\PG=C01 [X(C14H19Cl1N2O2)]\\@


 EVERYBODY NEEDS BEAUTY AS WELL AS BREAD, PLACES TO PLAY IN AND PRAY IN,
 WHERE NATURE MAY HEAL AND CHEER AND GIVE STRENGTH TO BODY AND SOUL ALIKE.

                                    -- JOHN MUIR
 Job cpu time:  0 days  0 hours  3 minutes 31.1 seconds.
 File lengths (MBytes):  RWF=     85 Int=      0 D2E=      0 Chk=      6 Scr=      1
 Normal termination of Gaussian 09 at Wed Mar  4 21:18:51 2026.
