===================================================
Begin TASK Prologue Sun Jan 25 08:06:26 PM EST 2026
===================================================
Job ID:           29970
Username:         tuu61186
Group:            icms
Job Name:         xtb_opt
Resources List:   nodes=1:ppn=1:ntasks=1
Queue:            normal
Account:          default
Nodes:      c01
===================================================
End TASK Prologue Sun Jan 25 08:06:26 PM EST 2026
===================================================
[INFO] submit_dir = /home/tuu61186/STEPs/1_xTB_structureOPT
[INFO] pwd        = /home/tuu61186/STEPs/1_xTB_structureOPT
[INFO] xtb = /home/tuu61186/miniconda3/envs/xtb/bin/xtb
      -----------------------------------------------------------      
     |                   =====================                   |     
     |                           x T B                           |     
     |                   =====================                   |     
     |                         S. Grimme                         |     
     |          Mulliken Center for Theoretical Chemistry        |     
     |                    University of Bonn                     |     
      -----------------------------------------------------------      

   * xtb version 6.7.1 (edcfbbe) compiled by 'conda@c0858423619e' on 2025-09-04

[INFO] SRC = /home/tuu61186/STEPs/1_xTB_structureOPT/../0_openBable_SMILES/out/xyz
[INFO] OUT = /home/tuu61186/STEPs/1_xTB_structureOPT/runs
[INFO] xyz count = 6
[INFO] running STEPs_0001 (input: /home/tuu61186/STEPs/1_xTB_structureOPT/../0_openBable_SMILES/out/xyz/STEPs_0001.xyz)
[INFO] running STEPs_0002 (input: /home/tuu61186/STEPs/1_xTB_structureOPT/../0_openBable_SMILES/out/xyz/STEPs_0002.xyz)
[INFO] running STEPs_0003 (input: /home/tuu61186/STEPs/1_xTB_structureOPT/../0_openBable_SMILES/out/xyz/STEPs_0003.xyz)
[INFO] running STEPs_0004 (input: /home/tuu61186/STEPs/1_xTB_structureOPT/../0_openBable_SMILES/out/xyz/STEPs_0004.xyz)
[INFO] running STEPs_0005 (input: /home/tuu61186/STEPs/1_xTB_structureOPT/../0_openBable_SMILES/out/xyz/STEPs_0005.xyz)
[INFO] running STEPs_0006 (input: /home/tuu61186/STEPs/1_xTB_structureOPT/../0_openBable_SMILES/out/xyz/STEPs_0006.xyz)
[INFO] DONE
===================================================
Begin TASK Epilogue Sun Jan 25 08:06:44 PM EST 2026
===================================================
Job ID:           29970
Username:         tuu61186
Job Name:         xtb_opt
Resources List:   nodes=1:ppn=1:ntasks=1
Queue:            normal
Account:          default
Nodes:      c01
===================================================
End TASK Epilogue Sun Jan 25 08:06:44 PM EST 2026
===================================================
